 +---------------------------------------------------------------+
 |                                                               |
 |        ####### #     # ####### ####### ####### ######         |
 |        #     # ##    # #          #    #       #     #        |
 |        #     # # #   # #          #    #       #     #        |
 |        #     # #  #  # #####      #    #####   ######         |
 |        #     # #   # # #          #    #       #              |
 |        #     # #    ## #          #    #       #              |
 |        ####### #     # #######    #    ####### #              |
 |                                                               |
 |        Linear-Scaling Ab Initio Total Energy Program          |
 |                                                               |
 |          Release for academic collaborators of ODG            |
 |                                             Version 5.3.2.12  |
 |                                                               |
 +---------------------------------------------------------------+
 |                                                               |
 |  Authors:                                                     |
 |  Jacek Dziedzic, Peter D. Haynes, Nicholas D. M. Hine,        |
 |  Arash. A. Mostofi, Mike C. Payne and Chris-Kriton Skylaris   |
 |                                                               |
 |  Contributors:                                                |
 |  J. Aarons, L. Andrinopoulos, P. W. Avraam, R. A. Bell,       |
 |  A. Bhandari, G. A. Bramley, R. J. Charlton, S. J. Clark,     |
 |  R. J. Clements, G. C. Constantinescu, F. Corsetti,           |
 |  N. Corsini, O. Dieguez, S. M. M. Dubois, K. K. B. Duff,      |
 |  J. M. Escartin, A. Greco, H. Helal, Q. O. Hill, L. P. Lee,   |
 |  J.-H. Li, E. B. Linscott, G. Moynihan, D. D. O`Regan,        |
 |  O. K. Okan, M. J. S. Phipps, C. J. Pickard,                  |
 |  J. C. A. Prentice, M. I. J. Probert, L. E. Ratcliff,         |
 |  M. Robinson, A. Ruiz Serrano, J. S. Spencer, E. W. Tait,     |
 |  G. Teobaldi, D. Turban, V. Vitale, K. A. Wilkinson,          |
 |  C. Weber, J. C. Womack, N. Yeung and T. J. Zuehlsdorff       |
 |                                                               |
 |                                   Copyright (c) 2004-2020     |
 |                                                               |
 |  Please cite:                                                 |
 |  "Introducing ONETEP: Linear-scaling density functional       |
 |   simulations on parallel computers".                         |
 |   C.-K. Skylaris, P. D. Haynes, A. A. Mostofi, M. C. Payne.   |
 |   J. Chem. Phys. 122 084119 (2005).                           |
 |                                                               |
 |          in all publications arising from your use of ONETEP. |
 |                                                               |
 +---------------------------------------------------------------+
 |                                                               |
 |   ONETEP is based on developments described in the following  |
 |   publications:                                               |
 |                                                               |
 |  "Nonorthogonal generalized Wannier function pseudopotential  |
 |   plane-wave method".                                         |
 |   C.-K. Skylaris, A. A. Mostofi, P. D. Haynes, O. Dieguez,    |
 |   M. C. Payne.                                                |
 |   Phys. Rev. B 66 035119 (2002).                              |
 |                                                               |
 |  "Preconditioned iterative minimization for linear-scaling    |
 |   electronic structure calculations".                         |
 |   A. A. Mostofi, P. D. Haynes, C.-K. Skylaris, M. C. Payne.   |
 |   J. Chem. Phys. 119(17), pp.8842-8848 (2003).                |
 |                                                               |
 |  "Total-energy calculations on a real space grid with         |
 |   localized functions and a plane-wave basis".                |
 |   A. A. Mostofi, C.-K. Skylaris, P. D. Haynes, M. C. Payne.   |
 |   Comput. Phys. Commun. 147, pp.788-802 (2002).               |
 |                                                               |
 |  "Accurate kinetic energy evaluation in electronic structure  |
 |   calculations with localized functions on real space grids"  |
 |   C.-K. Skylaris, A. A. Mostofi, P. D. Haynes, C. J. Pickard, |
 |   M. C. Payne.                                                |
 |   Comput. Phys. Commun. 140, pp.315-322 (2001).               |
 |                                                               |
 |  "Accurate ionic forces and geometry optimization in linear-  |
 |   scaling density-functional theory with local orbitals"      |
 |   N. D. M. Hine, M. Robinson, P. D. Haynes, C.-K. Skylaris,   |
 |   M. C. Payne, and A. A. Mostofi.                             |
 |   Phys. Rev. B 83 195102 (2011).                              |
 |                                                               |
 +---------------------------------------------------------------+

Job started: 25-02-2020 10:21 (-0000)
 
Reading parameters from file "3.1661816_GO_manual_4x64graphite.dat" ...

WARNING: "cutoff_energy" not specified, but "psinc_spacing" specified.
         Using the latter to set the KE cutoff energy to  732.32021eV,
         thus *overriding* the default.

... done

If your calculation crashes here, before "Checking processes and threads..."
is displayed, then your stack size is insufficient.
If so, use "ulimit -s unlimited" at runtime.
You can disable this check with "check_stack_size F".

Checking processes and threads...
   Determining the default number of threads...
      No default threads set at compilation time: defaulting to 1.
      OpenMP library call suggests 4 threads.
      Hybrid MPI-OpenMP compilation detected.
      Number of MPI processes > 1.
      OMP_NUM_THREADS environment variable present and
      its value matches the one obtained from the OpenMP library call.
      Using this value as default.
      Default threads: 4
      Default applies to threads_max and threads_num_fftboxes.
      Settings in the input file override this default.
   ... done

   Running with 40 MPI processes.
   There are 10 MPI processes running on the same node as the root process.
   Each MPI process is using: 
               1 threads for simulation cell FFTs.
               1 threads for parallel FFT box operations.
               4 threads for loops over batched FFT box operations.
               4 threads in other parallel regions.
... done

Basic input checks...
Resetting ngwf_cg_rotate to TRUE for EDFT calculations
... done

Reading geometry and species blocks from file "3.1661816_GO_manual_4x64graphite.dat" ...
    
  PSINC grid spacing along a1 set to   0.511215680000a0 from input file.
  PSINC grid spacing along a2 set to   0.531284090000a0 from input file.
  PSINC grid spacing along a3 set to   0.507053250000a0 from input file.
  Number of PPD points along a3 set to 1.  This is 
  the default value, it may have been provided also in the input file.
... done
 Writing xyz coordinates to file "3.1661816_GO_manual_4x64graphite.xyz" ... done


--------------------------------------------------------------------------------
---------------------------------- INPUT FILE ----------------------------------
--------------------------------------------------------------------------------

task : singlepoint                                                              
do_properties : true                                                            
dx_format T                                                                     
edft T                                                                          
output_detail VERBOSE                                                           
write_xyz T                                                                     
xc_functional OPTB88                                                            
PSINC_SPACING 0.51121568 0.53128409 0.50705325                                  
paw T                                                                           
pdos_max_l = 2                                                                  
dos_smear  0.1 eV                                                               
popn_calculate T                                                                
PDOS_PSEUDOATOMIC T                                                             
PDOS_REDUCE_SWS F                                                               
PDOS_CONSTRUCT_BASIS F                                                          
PDOS_LOWDIN T                                                                   
PDOS_ORTH_ATOM_BLOCKS F                                                         
PDOS_LCAO_OPTIMIZE F                                                            
pdos_optados_output T                                                           
homo_plot 0                                                                     
lumo_plot 0                                                                     
homo_dens_plot -1                                                               
lumo_dens_plot -1                                                               
%BLOCK SPECIES                                                                  
C C 6 4 9.0                                                                     
%ENDBLOCK SPECIES                                                               
%BLOCK SPECIES_POT                                                              
C "~/pp/paw/c_pbe_abinit.paw"                                                   
%ENDBLOCK SPECIES_POT                                                           
%BLOCK SPECIES_ATOMIC_SET                                                       
C "SOLVE conf=2s2 2p2"                                                          
%ENDBLOCK SPECIES_ATOMIC_SET                                                    
%BLOCK LATTICE_CART                                                             
32.21  0.00  0.00                                                               
0.00 18.59  0.00                                                                
0.00  0.00 59.83                                                                
%ENDBLOCK LATTICE_CART                                                          
%BLOCK POSITIONS_ABS                                                            
C  0.00  0.00  2.99                                                             
C  0.00  0.00 14.96                                                             
C  0.00  0.00 26.92                                                             
C  0.00  0.00 38.89                                                             
C  0.00  0.00 50.86                                                             
C  0.00  4.65  2.99                                                             
C  0.00  4.65 14.96                                                             
C  0.00  4.65 26.92                                                             
C  0.00  4.65 38.89                                                             
C  0.00  4.65 50.86                                                             
C  4.03  2.32  2.99                                                             
C  4.03  2.32 14.96                                                             
C  4.03  2.32 26.92                                                             
C  4.03  2.32 38.89                                                             
C  4.03  2.32 50.86                                                             
C  8.05  0.00  2.99                                                             
C  8.05  0.00 14.96                                                             
C  8.05  0.00 26.92                                                             
C  8.05  0.00 38.89                                                             
C  8.05  0.00 50.86                                                             
C  0.00  9.30  2.99                                                             
C  0.00  9.30 14.96                                                             
C  0.00  9.30 26.92                                                             
C  0.00  9.30 38.89                                                             
C  0.00  9.30 50.86                                                             
C  4.03  6.97  2.99                                                             
C  4.03  6.97 14.96                                                             
C  4.03  6.97 26.92                                                             
C  4.03  6.97 38.89                                                             
C  4.03  6.97 50.86                                                             
C  8.05  4.65  2.99                                                             
C  8.05  4.65 14.96                                                             
C  8.05  4.65 26.92                                                             
C  8.05  4.65 38.89                                                             
C  8.05  4.65 50.86                                                             
C 12.08  2.32  2.99                                                             
C 12.08  2.32 14.96                                                             
C 12.08  2.32 26.92                                                             
C 12.08  2.32 38.89                                                             
C 12.08  2.32 50.86                                                             
C 16.10  0.00  2.99                                                             
C 16.10  0.00 14.96                                                             
C 16.10  0.00 26.92                                                             
C 16.10  0.00 38.89                                                             
C 16.10  0.00 50.86                                                             
C  0.00 13.95  2.99                                                             
C  0.00 13.95 14.96                                                             
C  0.00 13.95 26.92                                                             
C  0.00 13.95 38.89                                                             
C  0.00 13.95 50.86                                                             
C  4.03 11.62  2.99                                                             
C  4.03 11.62 14.96                                                             
C  4.03 11.62 26.92                                                             
C  4.03 11.62 38.89                                                             
C  4.03 11.62 50.86                                                             
C  8.05  9.30  2.99                                                             
C  8.05  9.30 14.96                                                             
C  8.05  9.30 26.92                                                             
C  8.05  9.30 38.89                                                             
C  8.05  9.30 50.86                                                             
C 12.08  6.97  2.99                                                             
C 12.08  6.97 14.96                                                             
C 12.08  6.97 26.92                                                             
C 12.08  6.97 38.89                                                             
C 12.08  6.97 50.86                                                             
C 16.10  4.65  2.99                                                             
C 16.10  4.65 14.96                                                             
C 16.10  4.65 26.92                                                             
C 16.10  4.65 38.89                                                             
C 16.10  4.65 50.86                                                             
C 20.13  2.32  2.99                                                             
C 20.13  2.32 14.96                                                             
C 20.13  2.32 26.92                                                             
C 20.13  2.32 38.89                                                             
C 20.13  2.32 50.86                                                             
C 24.16  0.00  2.99                                                             
C 24.16  0.00 14.96                                                             
C 24.16  0.00 26.92                                                             
C 24.16  0.00 38.89                                                             
C 24.16  0.00 50.86                                                             
C  4.03 16.27  2.99                                                             
C  4.03 16.27 14.96                                                             
C  4.03 16.27 26.92                                                             
C  4.03 16.27 38.89                                                             
C  4.03 16.27 50.86                                                             
C  8.05 13.95  2.99                                                             
C  8.05 13.95 14.96                                                             
C  8.05 13.95 26.92                                                             
C  8.05 13.95 38.89                                                             
C  8.05 13.95 50.86                                                             
C 12.08 11.62  2.99                                                             
C 12.08 11.62 14.96                                                             
C 12.08 11.62 26.92                                                             
C 12.08 11.62 38.89                                                             
C 12.08 11.62 50.86                                                             
C 16.10  9.30  2.99                                                             
C 16.10  9.30 14.96                                                             
C 16.10  9.30 26.92                                                             
C 16.10  9.30 38.89                                                             
C 16.10  9.30 50.86                                                             
C 20.13  6.97  2.99                                                             
C 20.13  6.97 14.96                                                             
C 20.13  6.97 26.92                                                             
C 20.13  6.97 38.89                                                             
C 20.13  6.97 50.86                                                             
C 24.16  4.65  2.99                                                             
C 24.16  4.65 14.96                                                             
C 24.16  4.65 26.92                                                             
C 24.16  4.65 38.89                                                             
C 24.16  4.65 50.86                                                             
C 28.18  2.32  2.99                                                             
C 28.18  2.32 14.96                                                             
C 28.18  2.32 26.92                                                             
C 28.18  2.32 38.89                                                             
C 28.18  2.32 50.86                                                             
C 12.08 16.27  2.99                                                             
C 12.08 16.27 14.96                                                             
C 12.08 16.27 26.92                                                             
C 12.08 16.27 38.89                                                             
C 12.08 16.27 50.86                                                             
C 16.10 13.95  2.99                                                             
C 16.10 13.95 14.96                                                             
C 16.10 13.95 26.92                                                             
C 16.10 13.95 38.89                                                             
C 16.10 13.95 50.86                                                             
C 20.13 11.62  2.99                                                             
C 20.13 11.62 14.96                                                             
C 20.13 11.62 26.92                                                             
C 20.13 11.62 38.89                                                             
C 20.13 11.62 50.86                                                             
C 24.16  9.30  2.99                                                             
C 24.16  9.30 14.96                                                             
C 24.16  9.30 26.92                                                             
C 24.16  9.30 38.89                                                             
C 24.16  9.30 50.86                                                             
C 28.18  6.97  2.99                                                             
C 28.18  6.97 14.96                                                             
C 28.18  6.97 26.92                                                             
C 28.18  6.97 38.89                                                             
C 28.18  6.97 50.86                                                             
C 20.13 16.27  2.99                                                             
C 20.13 16.27 14.96                                                             
C 20.13 16.27 26.92                                                             
C 20.13 16.27 38.89                                                             
C 20.13 16.27 50.86                                                             
C 24.16 13.95  2.99                                                             
C 24.16 13.95 14.96                                                             
C 24.16 13.95 26.92                                                             
C 24.16 13.95 38.89                                                             
C 24.16 13.95 50.86                                                             
C 28.18 11.62  2.99                                                             
C 28.18 11.62 14.96                                                             
C 28.18 11.62 26.92                                                             
C 28.18 11.62 38.89                                                             
C 28.18 11.62 50.86                                                             
C 28.18 16.27  2.99                                                             
C 28.18 16.27 14.96                                                             
C 28.18 16.27 26.92                                                             
C 28.18 16.27 38.89                                                             
C 28.18 16.27 50.86                                                             
C  0.00  0.00  8.97                                                             
C  0.00  0.00 20.94                                                             
C  0.00  0.00 32.91                                                             
C  0.00  0.00 44.87                                                             
C  0.00  0.00 56.84                                                             
C  0.00  4.65  8.97                                                             
C  0.00  4.65 20.94                                                             
C  0.00  4.65 32.91                                                             
C  0.00  4.65 44.87                                                             
C  0.00  4.65 56.84                                                             
C  4.03  2.32  8.97                                                             
C  4.03  2.32 20.94                                                             
C  4.03  2.32 32.91                                                             
C  4.03  2.32 44.87                                                             
C  4.03  2.32 56.84                                                             
C  8.05  0.00  8.97                                                             
C  8.05  0.00 20.94                                                             
C  8.05  0.00 32.91                                                             
C  8.05  0.00 44.87                                                             
C  8.05  0.00 56.84                                                             
C  0.00  9.30  8.97                                                             
C  0.00  9.30 20.94                                                             
C  0.00  9.30 32.91                                                             
C  0.00  9.30 44.87                                                             
C  0.00  9.30 56.84                                                             
C  4.03  6.97  8.97                                                             
C  4.03  6.97 20.94                                                             
C  4.03  6.97 32.91                                                             
C  4.03  6.97 44.87                                                             
C  4.03  6.97 56.84                                                             
C  8.05  4.65  8.97                                                             
C  8.05  4.65 20.94                                                             
C  8.05  4.65 32.91                                                             
C  8.05  4.65 44.87                                                             
C  8.05  4.65 56.84                                                             
C 12.08  2.32  8.97                                                             
C 12.08  2.32 20.94                                                             
C 12.08  2.32 32.91                                                             
C 12.08  2.32 44.87                                                             
C 12.08  2.32 56.84                                                             
C 16.10  0.00  8.97                                                             
C 16.10  0.00 20.94                                                             
C 16.10  0.00 32.91                                                             
C 16.10  0.00 44.87                                                             
C 16.10  0.00 56.84                                                             
C  0.00 13.95  8.97                                                             
C  0.00 13.95 20.94                                                             
C  0.00 13.95 32.91                                                             
C  0.00 13.95 44.87                                                             
C  0.00 13.95 56.84                                                             
C  4.03 11.62  8.97                                                             
C  4.03 11.62 20.94                                                             
C  4.03 11.62 32.91                                                             
C  4.03 11.62 44.87                                                             
C  4.03 11.62 56.84                                                             
C  8.05  9.30  8.97                                                             
C  8.05  9.30 20.94                                                             
C  8.05  9.30 32.91                                                             
C  8.05  9.30 44.87                                                             
C  8.05  9.30 56.84                                                             
C 12.08  6.97  8.97                                                             
C 12.08  6.97 20.94                                                             
C 12.08  6.97 32.91                                                             
C 12.08  6.97 44.87                                                             
C 12.08  6.97 56.84                                                             
C 16.10  4.65  8.97                                                             
C 16.10  4.65 20.94                                                             
C 16.10  4.65 32.91                                                             
C 16.10  4.65 44.87                                                             
C 16.10  4.65 56.84                                                             
C 20.13  2.32  8.97                                                             
C 20.13  2.32 20.94                                                             
C 20.13  2.32 32.91                                                             
C 20.13  2.32 44.87                                                             
C 20.13  2.32 56.84                                                             
C 24.16  0.00  8.97                                                             
C 24.16  0.00 20.94                                                             
C 24.16  0.00 32.91                                                             
C 24.16  0.00 44.87                                                             
C 24.16  0.00 56.84                                                             
C  4.03 16.27  8.97                                                             
C  4.03 16.27 20.94                                                             
C  4.03 16.27 32.91                                                             
C  4.03 16.27 44.87                                                             
C  4.03 16.27 56.84                                                             
C  8.05 13.95  8.97                                                             
C  8.05 13.95 20.94                                                             
C  8.05 13.95 32.91                                                             
C  8.05 13.95 44.87                                                             
C  8.05 13.95 56.84                                                             
C 12.08 11.62  8.97                                                             
C 12.08 11.62 20.94                                                             
C 12.08 11.62 32.91                                                             
C 12.08 11.62 44.87                                                             
C 12.08 11.62 56.84                                                             
C 16.10  9.30  8.97                                                             
C 16.10  9.30 20.94                                                             
C 16.10  9.30 32.91                                                             
C 16.10  9.30 44.87                                                             
C 16.10  9.30 56.84                                                             
C 20.13  6.97  8.97                                                             
C 20.13  6.97 20.94                                                             
C 20.13  6.97 32.91                                                             
C 20.13  6.97 44.87                                                             
C 20.13  6.97 56.84                                                             
C 24.16  4.65  8.97                                                             
C 24.16  4.65 20.94                                                             
C 24.16  4.65 32.91                                                             
C 24.16  4.65 44.87                                                             
C 24.16  4.65 56.84                                                             
C 28.18  2.32  8.97                                                             
C 28.18  2.32 20.94                                                             
C 28.18  2.32 32.91                                                             
C 28.18  2.32 44.87                                                             
C 28.18  2.32 56.84                                                             
C 12.08 16.27  8.97                                                             
C 12.08 16.27 20.94                                                             
C 12.08 16.27 32.91                                                             
C 12.08 16.27 44.87                                                             
C 12.08 16.27 56.84                                                             
C 16.10 13.95  8.97                                                             
C 16.10 13.95 20.94                                                             
C 16.10 13.95 32.91                                                             
C 16.10 13.95 44.87                                                             
C 16.10 13.95 56.84                                                             
C 20.13 11.62  8.97                                                             
C 20.13 11.62 20.94                                                             
C 20.13 11.62 32.91                                                             
C 20.13 11.62 44.87                                                             
C 20.13 11.62 56.84                                                             
C 24.16  9.30  8.97                                                             
C 24.16  9.30 20.94                                                             
C 24.16  9.30 32.91                                                             
C 24.16  9.30 44.87                                                             
C 24.16  9.30 56.84                                                             
C 28.18  6.97  8.97                                                             
C 28.18  6.97 20.94                                                             
C 28.18  6.97 32.91                                                             
C 28.18  6.97 44.87                                                             
C 28.18  6.97 56.84                                                             
C 20.13 16.27  8.97                                                             
C 20.13 16.27 20.94                                                             
C 20.13 16.27 32.91                                                             
C 20.13 16.27 44.87                                                             
C 20.13 16.27 56.84                                                             
C 24.16 13.95  8.97                                                             
C 24.16 13.95 20.94                                                             
C 24.16 13.95 32.91                                                             
C 24.16 13.95 44.87                                                             
C 24.16 13.95 56.84                                                             
C 28.18 11.62  8.97                                                             
C 28.18 11.62 20.94                                                             
C 28.18 11.62 32.91                                                             
C 28.18 11.62 44.87                                                             
C 28.18 11.62 56.84                                                             
C 28.18 16.27  8.97                                                             
C 28.18 16.27 20.94                                                             
C 28.18 16.27 32.91                                                             
C 28.18 16.27 44.87                                                             
C 28.18 16.27 56.84                                                             
C  1.34  2.32  2.99                                                             
C  1.34  2.32 14.96                                                             
C  1.34  2.32 26.92                                                             
C  1.34  2.32 38.89                                                             
C  1.34  2.32 50.86                                                             
C  5.37  0.00  2.99                                                             
C  5.37  0.00 14.96                                                             
C  5.37  0.00 26.92                                                             
C  5.37  0.00 38.89                                                             
C  5.37  0.00 50.86                                                             
C  1.34  6.97  2.99                                                             
C  1.34  6.97 14.96                                                             
C  1.34  6.97 26.92                                                             
C  1.34  6.97 38.89                                                             
C  1.34  6.97 50.86                                                             
C  5.37  4.65  2.99                                                             
C  5.37  4.65 14.96                                                             
C  5.37  4.65 26.92                                                             
C  5.37  4.65 38.89                                                             
C  5.37  4.65 50.86                                                             
C  9.39  2.32  2.99                                                             
C  9.39  2.32 14.96                                                             
C  9.39  2.32 26.92                                                             
C  9.39  2.32 38.89                                                             
C  9.39  2.32 50.86                                                             
C 13.42  0.00  2.99                                                             
C 13.42  0.00 14.96                                                             
C 13.42  0.00 26.92                                                             
C 13.42  0.00 38.89                                                             
C 13.42  0.00 50.86                                                             
C  1.34 11.62  2.99                                                             
C  1.34 11.62 14.96                                                             
C  1.34 11.62 26.92                                                             
C  1.34 11.62 38.89                                                             
C  1.34 11.62 50.86                                                             
C  5.37  9.30  2.99                                                             
C  5.37  9.30 14.96                                                             
C  5.37  9.30 26.92                                                             
C  5.37  9.30 38.89                                                             
C  5.37  9.30 50.86                                                             
C  9.39  6.97  2.99                                                             
C  9.39  6.97 14.96                                                             
C  9.39  6.97 26.92                                                             
C  9.39  6.97 38.89                                                             
C  9.39  6.97 50.86                                                             
C 13.42  4.65  2.99                                                             
C 13.42  4.65 14.96                                                             
C 13.42  4.65 26.92                                                             
C 13.42  4.65 38.89                                                             
C 13.42  4.65 50.86                                                             
C 17.45  2.32  2.99                                                             
C 17.45  2.32 14.96                                                             
C 17.45  2.32 26.92                                                             
C 17.45  2.32 38.89                                                             
C 17.45  2.32 50.86                                                             
C 21.47  0.00  2.99                                                             
C 21.47  0.00 14.96                                                             
C 21.47  0.00 26.92                                                             
C 21.47  0.00 38.89                                                             
C 21.47  0.00 50.86                                                             
C  1.34 16.27  2.99                                                             
C  1.34 16.27 14.96                                                             
C  1.34 16.27 26.92                                                             
C  1.34 16.27 38.89                                                             
C  1.34 16.27 50.86                                                             
C  5.37 13.95  2.99                                                             
C  5.37 13.95 14.96                                                             
C  5.37 13.95 26.92                                                             
C  5.37 13.95 38.89                                                             
C  5.37 13.95 50.86                                                             
C  9.39 11.62  2.99                                                             
C  9.39 11.62 14.96                                                             
C  9.39 11.62 26.92                                                             
C  9.39 11.62 38.89                                                             
C  9.39 11.62 50.86                                                             
C 13.42  9.30  2.99                                                             
C 13.42  9.30 14.96                                                             
C 13.42  9.30 26.92                                                             
C 13.42  9.30 38.89                                                             
C 13.42  9.30 50.86                                                             
C 17.45  6.97  2.99                                                             
C 17.45  6.97 14.96                                                             
C 17.45  6.97 26.92                                                             
C 17.45  6.97 38.89                                                             
C 17.45  6.97 50.86                                                             
C 21.47  4.65  2.99                                                             
C 21.47  4.65 14.96                                                             
C 21.47  4.65 26.92                                                             
C 21.47  4.65 38.89                                                             
C 21.47  4.65 50.86                                                             
C 25.50  2.32  2.99                                                             
C 25.50  2.32 14.96                                                             
C 25.50  2.32 26.92                                                             
C 25.50  2.32 38.89                                                             
C 25.50  2.32 50.86                                                             
C 29.52  0.00  2.99                                                             
C 29.52  0.00 14.96                                                             
C 29.52  0.00 26.92                                                             
C 29.52  0.00 38.89                                                             
C 29.52  0.00 50.86                                                             
C  9.39 16.27  2.99                                                             
C  9.39 16.27 14.96                                                             
C  9.39 16.27 26.92                                                             
C  9.39 16.27 38.89                                                             
C  9.39 16.27 50.86                                                             
C 13.42 13.95  2.99                                                             
C 13.42 13.95 14.96                                                             
C 13.42 13.95 26.92                                                             
C 13.42 13.95 38.89                                                             
C 13.42 13.95 50.86                                                             
C 17.45 11.62  2.99                                                             
C 17.45 11.62 14.96                                                             
C 17.45 11.62 26.92                                                             
C 17.45 11.62 38.89                                                             
C 17.45 11.62 50.86                                                             
C 21.47  9.30  2.99                                                             
C 21.47  9.30 14.96                                                             
C 21.47  9.30 26.92                                                             
C 21.47  9.30 38.89                                                             
C 21.47  9.30 50.86                                                             
C 25.50  6.97  2.99                                                             
C 25.50  6.97 14.96                                                             
C 25.50  6.97 26.92                                                             
C 25.50  6.97 38.89                                                             
C 25.50  6.97 50.86                                                             
C 29.52  4.65  2.99                                                             
C 29.52  4.65 14.96                                                             
C 29.52  4.65 26.92                                                             
C 29.52  4.65 38.89                                                             
C 29.52  4.65 50.86                                                             
C 17.45 16.27  2.99                                                             
C 17.45 16.27 14.96                                                             
C 17.45 16.27 26.92                                                             
C 17.45 16.27 38.89                                                             
C 17.45 16.27 50.86                                                             
C 21.47 13.95  2.99                                                             
C 21.47 13.95 14.96                                                             
C 21.47 13.95 26.92                                                             
C 21.47 13.95 38.89                                                             
C 21.47 13.95 50.86                                                             
C 25.50 11.62  2.99                                                             
C 25.50 11.62 14.96                                                             
C 25.50 11.62 26.92                                                             
C 25.50 11.62 38.89                                                             
C 25.50 11.62 50.86                                                             
C 29.52  9.30  2.99                                                             
C 29.52  9.30 14.96                                                             
C 29.52  9.30 26.92                                                             
C 29.52  9.30 38.89                                                             
C 29.52  9.30 50.86                                                             
C 25.50 16.27  2.99                                                             
C 25.50 16.27 14.96                                                             
C 25.50 16.27 26.92                                                             
C 25.50 16.27 38.89                                                             
C 25.50 16.27 50.86                                                             
C 29.52 13.95  2.99                                                             
C 29.52 13.95 14.96                                                             
C 29.52 13.95 26.92                                                             
C 29.52 13.95 38.89                                                             
C 29.52 13.95 50.86                                                             
C  2.68  0.00  8.97                                                             
C  2.68  0.00 20.94                                                             
C  2.68  0.00 32.91                                                             
C  2.68  0.00 44.87                                                             
C  2.68  0.00 56.84                                                             
C  2.68  4.65  8.97                                                             
C  2.68  4.65 20.94                                                             
C  2.68  4.65 32.91                                                             
C  2.68  4.65 44.87                                                             
C  2.68  4.65 56.84                                                             
C  6.71  2.32  8.97                                                             
C  6.71  2.32 20.94                                                             
C  6.71  2.32 32.91                                                             
C  6.71  2.32 44.87                                                             
C  6.71  2.32 56.84                                                             
C 10.74  0.00  8.97                                                             
C 10.74  0.00 20.94                                                             
C 10.74  0.00 32.91                                                             
C 10.74  0.00 44.87                                                             
C 10.74  0.00 56.84                                                             
C  2.68  9.30  8.97                                                             
C  2.68  9.30 20.94                                                             
C  2.68  9.30 32.91                                                             
C  2.68  9.30 44.87                                                             
C  2.68  9.30 56.84                                                             
C  6.71  6.97  8.97                                                             
C  6.71  6.97 20.94                                                             
C  6.71  6.97 32.91                                                             
C  6.71  6.97 44.87                                                             
C  6.71  6.97 56.84                                                             
C 10.74  4.65  8.97                                                             
C 10.74  4.65 20.94                                                             
C 10.74  4.65 32.91                                                             
C 10.74  4.65 44.87                                                             
C 10.74  4.65 56.84                                                             
C 14.76  2.32  8.97                                                             
C 14.76  2.32 20.94                                                             
C 14.76  2.32 32.91                                                             
C 14.76  2.32 44.87                                                             
C 14.76  2.32 56.84                                                             
C 18.79  0.00  8.97                                                             
C 18.79  0.00 20.94                                                             
C 18.79  0.00 32.91                                                             
C 18.79  0.00 44.87                                                             
C 18.79  0.00 56.84                                                             
C  2.68 13.95  8.97                                                             
C  2.68 13.95 20.94                                                             
C  2.68 13.95 32.91                                                             
C  2.68 13.95 44.87                                                             
C  2.68 13.95 56.84                                                             
C  6.71 11.62  8.97                                                             
C  6.71 11.62 20.94                                                             
C  6.71 11.62 32.91                                                             
C  6.71 11.62 44.87                                                             
C  6.71 11.62 56.84                                                             
C 10.74  9.30  8.97                                                             
C 10.74  9.30 20.94                                                             
C 10.74  9.30 32.91                                                             
C 10.74  9.30 44.87                                                             
C 10.74  9.30 56.84                                                             
C 14.76  6.97  8.97                                                             
C 14.76  6.97 20.94                                                             
C 14.76  6.97 32.91                                                             
C 14.76  6.97 44.87                                                             
C 14.76  6.97 56.84                                                             
C 18.79  4.65  8.97                                                             
C 18.79  4.65 20.94                                                             
C 18.79  4.65 32.91                                                             
C 18.79  4.65 44.87                                                             
C 18.79  4.65 56.84                                                             
C 22.81  2.32  8.97                                                             
C 22.81  2.32 20.94                                                             
C 22.81  2.32 32.91                                                             
C 22.81  2.32 44.87                                                             
C 22.81  2.32 56.84                                                             
C 26.84  0.00  8.97                                                             
C 26.84  0.00 20.94                                                             
C 26.84  0.00 32.91                                                             
C 26.84  0.00 44.87                                                             
C 26.84  0.00 56.84                                                             
C  6.71 16.27  8.97                                                             
C  6.71 16.27 20.94                                                             
C  6.71 16.27 32.91                                                             
C  6.71 16.27 44.87                                                             
C  6.71 16.27 56.84                                                             
C 10.74 13.95  8.97                                                             
C 10.74 13.95 20.94                                                             
C 10.74 13.95 32.91                                                             
C 10.74 13.95 44.87                                                             
C 10.74 13.95 56.84                                                             
C 14.76 11.62  8.97                                                             
C 14.76 11.62 20.94                                                             
C 14.76 11.62 32.91                                                             
C 14.76 11.62 44.87                                                             
C 14.76 11.62 56.84                                                             
C 18.79  9.30  8.97                                                             
C 18.79  9.30 20.94                                                             
C 18.79  9.30 32.91                                                             
C 18.79  9.30 44.87                                                             
C 18.79  9.30 56.84                                                             
C 22.81  6.97  8.97                                                             
C 22.81  6.97 20.94                                                             
C 22.81  6.97 32.91                                                             
C 22.81  6.97 44.87                                                             
C 22.81  6.97 56.84                                                             
C 26.84  4.65  8.97                                                             
C 26.84  4.65 20.94                                                             
C 26.84  4.65 32.91                                                             
C 26.84  4.65 44.87                                                             
C 26.84  4.65 56.84                                                             
C 30.86  2.32  8.97                                                             
C 30.86  2.32 20.94                                                             
C 30.86  2.32 32.91                                                             
C 30.86  2.32 44.87                                                             
C 30.86  2.32 56.84                                                             
C 14.76 16.27  8.97                                                             
C 14.76 16.27 20.94                                                             
C 14.76 16.27 32.91                                                             
C 14.76 16.27 44.87                                                             
C 14.76 16.27 56.84                                                             
C 18.79 13.95  8.97                                                             
C 18.79 13.95 20.94                                                             
C 18.79 13.95 32.91                                                             
C 18.79 13.95 44.87                                                             
C 18.79 13.95 56.84                                                             
C 22.81 11.62  8.97                                                             
C 22.81 11.62 20.94                                                             
C 22.81 11.62 32.91                                                             
C 22.81 11.62 44.87                                                             
C 22.81 11.62 56.84                                                             
C 26.84  9.30  8.97                                                             
C 26.84  9.30 20.94                                                             
C 26.84  9.30 32.91                                                             
C 26.84  9.30 44.87                                                             
C 26.84  9.30 56.84                                                             
C 30.86  6.97  8.97                                                             
C 30.86  6.97 20.94                                                             
C 30.86  6.97 32.91                                                             
C 30.86  6.97 44.87                                                             
C 30.86  6.97 56.84                                                             
C 22.81 16.27  8.97                                                             
C 22.81 16.27 20.94                                                             
C 22.81 16.27 32.91                                                             
C 22.81 16.27 44.87                                                             
C 22.81 16.27 56.84                                                             
C 26.84 13.95  8.97                                                             
C 26.84 13.95 20.94                                                             
C 26.84 13.95 32.91                                                             
C 26.84 13.95 44.87                                                             
C 26.84 13.95 56.84                                                             
C 30.86 11.62  8.97                                                             
C 30.86 11.62 20.94                                                             
C 30.86 11.62 32.91                                                             
C 30.86 11.62 44.87                                                             
C 30.86 11.62 56.84                                                             
C 30.86 16.27  8.97                                                             
C 30.86 16.27 20.94                                                             
C 30.86 16.27 32.91                                                             
C 30.86 16.27 44.87                                                             
C 30.86 16.27 56.84                                                             
%ENDBLOCK POSITIONS_ABS                                                         

--------------------------------------------------------------------------------
-------------------------------- END INPUT FILE --------------------------------
--------------------------------------------------------------------------------


 
<<<<<<<<<<<<<<<<<<<<<<<<<<<<<<<<< Full system >>>>>>>>>>>>>>>>>>>>>>>>>>>>>>>>>>
<<<<<<<<<<<<<<<<<<<<<<<<<<< PAW Dataset information >>>>>>>>>>>>>>>>>>>>>>>>>>>
File: ~/pp/paw/c_pbe_abinit.paw; rc = 1.25 bohr; shape type =  3; rshape = 1.25 bohr;
  Atomic number:  6;  ionic charge:  4.000000
    Partial Wave 1: l = 0
    Partial Wave 2: l = 0
    Partial Wave 3: l = 1
    Partial Wave 4: l = 1
  Core charge supplied for Nonlinear Core Corrections
<<<<<<<<<<<<<<<<<<<<<<<<<<<<<<<<<<<<<<< >>>>>>>>>>>>>>>>>>>>>>>>>>>>>>>>>>>>>>>

-------------------------- Atom counting information ---------------------------
Symbol    Natoms    Nngwfs    Nprojs
  C        640      2560      5120
.......   ......    ......    ......
Totals:    640      2560      5120
--------------------------------------------------------------------------------

=============================== PSINC grid sizes ===============================
                      Simulation cell:   63 x  35 x 118
                              FFT-box:   63 x  35 x 117
                                  PPD:    7 x   5 x   1
Grid space d1=  0.511269841270a0 (KE cutoff=  29.06054Eh = 790.77748eV)
Grid space d2=  0.531142857143a0 (KE cutoff=  26.92659Eh = 732.70972eV)
Grid space d3=  0.507033898305a0 (KE cutoff=  29.54813Eh = 804.04555eV)
================================================================================
  
WARNING in cell_grid_distribute:
Average of less than one 23-slab per node, so workload cannot be
equally balanced between nodes.

********************* Fourier parallelisation information **********************
       Coarse grid (whole simulation cell) dimensions:     63    35   118
          Real-space ('12') slabs/node (min max mean):      2     3     2
         Recip-space ('23') slabs/node (min max mean):      0     1     0
********************************************************************************

********************* Fourier parallelisation information **********************
       Double grid (whole simulation cell) dimensions:    126    70   236
          Real-space ('12') slabs/node (min max mean):      5     6     5
         Recip-space ('23') slabs/node (min max mean):      1     2     1
********************************************************************************

Atom SCF Calculation for C  : Z (AE atom) =   6 : Z (PS atom) =   4
Config String: 2s2 2p2
Orbitals (num,occ):  2     2.00 2.00
Orbitals   (num,l):  2        0    1
Real-space Grid (nr,dr,rmax): 1293    0.0069659443    9.0000000000
Spherical Bessel Basis (nsws,lmax,cutoff):   37    2  161.4736382572
Confining potential (l,width,scale):  0    3.0000000000  100.0000000000
Confining potential (l,width,scale):  1    3.0000000000  100.0000000000
  1         -5.4468762137   -1.3311033486    4.5135257941   -1.6400141247
  2         -5.4563922850   -1.3925089082    4.4492606193   -1.6178955363
  3         -5.4591606672   -1.4162756486    4.4239316220   -1.6104942496
  4         -5.4639338613   -1.4240698331    4.4156521757   -1.6083566999
  5         -5.4657436445   -1.4272842389    4.4122438165   -1.6075116305
  6         -5.4665049591   -1.4285796230    4.4108740217   -1.6071800157
  7         -5.4668137280   -1.4291083664    4.4103163978   -1.6070462938
  8         -5.4669397753   -1.4293243321    4.4100892688   -1.6069921003
  9         -5.4669910134   -1.4294128082    4.4099964732   -1.6069700140
 10         -5.4670118707   -1.4294491026    4.4099585094   -1.6069609935
 11         -5.4670203648   -1.4294640137    4.4099429536   -1.6069573023
 12         -5.4670238269   -1.4294701480    4.4099365706   -1.6069557895
 13         -5.4670252393   -1.4294726750    4.4099339478   -1.6069551687
 14         -5.4670258160   -1.4294737172    4.4099328686   -1.6069549136
 15         -5.4670260518   -1.4294741476    4.4099324241   -1.6069548086
 16         -5.4670261483   -1.4294743256    4.4099322407   -1.6069547654
Atom SCF converged after  16 iterations to a total energy of     -5.46702615

Determining parallel strategy ...
... using space-filling curve
... NGWF load balancing: max     64;  min     64;  average     64
... Projector load balancing: max    128;  min    128;  average    128
... done
Calculating Ewald energy ...
              Ewald: real-space energy =    9534.921797
        Ewald: reciprocal-space energy =       0.038880
         Ewald: (sum_charge)**2 Energy =   11534.361834
         Ewald: (sum_charge**2) Energy =     911.871369
                          Ewald Energy =   -2911.272526
Basis initialisation ...... NGWF spheres initialised
... Projector spheres initialised
... NGWF tight boxes initialised
... Projector tight boxes initialised
... Tight-boxes gathered
... NGWF basis size (local,global):     694868  27907776
... PAW projector initialisation
... done

============================= Charge Augmentation ==============================
                           Aug box size:   11 x  11 x  11
================================================================================

========================== Sparse matrix information ===========================
                        Overlap matrix filling:  44.84%
                        Density kernel filling: 100.00%
              NGWF-Proj overlap matrix filling:  13.12%
                    Aug Overlap matrix filling:  47.97%
                    Hamiltonian matrix filling:  47.97%
                  NGWF diagonal matrix filling:   0.16%
                             KS matrix filling: 100.00% 
                           KSKS matrix filling: 100.00% 
================================================================================

Sparse matrix initialisation ... done
NGWF initialisation ...... done
============ Calculation of NGWF S^-1 using Hotelling algorithm ================ 
         Iteration  |  Frobenius norm and Maximum abs value    (of I-S*S_n^-1)   
               1       0.49239393E+02     0.97830029E+00
               2       0.48132944E+02     0.95837044E+00
               3       0.46434046E+02     0.92285080E+00
               4       0.44172178E+02     0.86442887E+00
               5       0.41420260E+02     0.77717453E+00
               6       0.38156960E+02     0.69053000E+00
               7       0.34642464E+02     0.64008289E+00
               8       0.31275114E+02     0.59850966E+00
               9       0.27825635E+02     0.55721634E+00
              10       0.23584625E+02     0.49579542E+00
              11       0.18031063E+02     0.39618964E+00
              12       0.11367875E+02     0.25758037E+00
              13       0.51052195E+01     0.11472914E+00
              14       0.12247029E+01     0.25641731E-01
              15       0.83745132E-01     0.15510098E-02
              16       0.48258424E-03     0.71503814E-05
              17       0.23504924E-07     0.22159474E-09
              18       0.83730729E-13     0.53290705E-14
================================================================================
Calculating core density ...
================================= Core Density =================================
               Core den box size:   21 x  21 x  21
================================================================================
 ... done
Up spin density kernel initialisation ...... done

Writing density kernel to file "3.1661816_GO_manual_4x64graphite.dkn" ... done

>>> Optimising kernel for current NGWFs:

--------------------------- Ensemble-DFT optimisation --------------------------
Running ScaLAPACK on   40 processor(s).

--------------------------------------------------------------------------------
  Iter                              Commutator    Free_energy(A=E-TS)     DeltaA
#    0                          0.000050398721   -3653.89430299170226  -3.65E+03

Step                       =       0.381966011250
Energy                     =   -3653.894261177100
Entropy (-TS)              =      -0.000041813997
Free energy (A=E-TS)       =   -3653.894302991702
Est. 0K Energy 0.5*(E+A)   =   -3653.894282084401
Residual Non-orthogonality =       0.000000000000
Residual N_electrons       =      -0.000000000606

Spin          Integrated_Ne            Fermi_level     Delta_Fermi_level
   1      2560.000000002532         0.239235848525              2.39E-01

                           Spin 1          
     Orb      H-eigenvalues     Occupancies
       1 |    -0.4838085314    1.0000000000 | 
                          ------
    1276 |     0.2065870287    0.9999666921 | 
    1277 |     0.2071793864    0.9999598413 | 
    1278 |     0.2071953854    0.9999596379 | 
    1279 |     0.2075601605    0.9999547106 | 
    1280 |     0.2081544717    0.9999453618 | 
                 - Gap at zero temperature -
    1281 |     0.2726103651    0.0000264868 | 
    1282 |     0.2726145034    0.0000264522 | 
    1283 |     0.2727408590    0.0000254175 | 
    1284 |     0.2728406375    0.0000246292 | 
    1285 |     0.2728447037    0.0000245976 | 
                          ------
    2560 |     1.0695311378    0.0000000000 | 

                       |  Abs_value |  Threshold | Converged
     Delta_Free_energy |   3.65E+03 |   1.00E-06 |        No
     Delta_Energy      |   3.65E+03 |   1.00E-04 |        No
     Delta_Entropy     |   4.18E-05 |   1.00E-04 |       Yes
     Commutator        |   5.04E-05 |   1.00E-05 |        No
     Delta_Fermi_level |   2.39E-01 |   1.00E-03 |        No

  Line search of the free energy minimum:
  Step_type        Step             Free_energy   Predicted_free_energy
.   Initial    0.000000    -3653.89430299170226
.    Trial1    0.381966    -3653.89685202333067
.    Trial2    0.618034    -3653.89646695921738
. Quadratic    0.439304    -3653.89689547546368    -3653.89689620007857

--------------------------------------------------------------------------------
  Iter                              Commutator    Free_energy(A=E-TS)     DeltaA
#    1                          0.000023055575   -3653.89689547546368  -2.59E-03

Step                       =       0.439304131476
Energy                     =   -3653.896854599368
Entropy (-TS)              =      -0.000040875702
Free energy (A=E-TS)       =   -3653.896895475464
Est. 0K Energy 0.5*(E+A)   =   -3653.896875037416
Residual Non-orthogonality =       0.000000000000
Residual N_electrons       =      -0.000000000393

Spin          Integrated_Ne            Fermi_level     Delta_Fermi_level
   1      2560.000000001629         0.241438872309              2.20E-03

                           Spin 1          
     Orb      H-eigenvalues     Occupancies
       1 |    -0.4825568537    1.0000000000 | 
                          ------
    1276 |     0.2087783795    0.9999668146 | 
    1277 |     0.2092579433    0.9999613890 | 
    1278 |     0.2092669909    0.9999612785 | 
    1279 |     0.2097793445    0.9999544789 | 
    1280 |     0.2102543080    0.9999471134 | 
                 - Gap at zero temperature -
    1281 |     0.2748744656    0.0000259808 | 
    1282 |     0.2748982430    0.0000257865 | 
    1283 |     0.2750415831    0.0000246454 | 
    1284 |     0.2751673325    0.0000236859 | 
    1285 |     0.2752016488    0.0000234307 | 
                          ------
    2560 |     1.0732038746    0.0000000000 | 

                       |  Abs_value |  Threshold | Converged
     Delta_Free_energy |   2.59E-03 |   1.00E-06 |        No
     Delta_Energy      |   2.59E-03 |   1.00E-04 |        No
     Delta_Entropy     |   9.38E-07 |   1.00E-04 |       Yes
     Commutator        |   2.31E-05 |   1.00E-05 |        No
     Delta_Fermi_level |   2.20E-03 |   1.00E-03 |        No

  Line search of the free energy minimum:
  Step_type        Step             Free_energy   Predicted_free_energy
.   Initial    0.000000    -3653.89689547546368
.    Trial1    0.439304    -3653.89727942969512
.    Trial2    0.653471    -3653.89680249692856
. Quadratic    0.311743    -3653.89735720042745    -3653.89735664429736

--------------------------------------------------------------------------------
  Iter                              Commutator    Free_energy(A=E-TS)     DeltaA
#    2                          0.000015761370   -3653.89735720042745  -4.62E-04

Step                       =       0.311743397569
Energy                     =   -3653.897316865747
Entropy (-TS)              =      -0.000040334706
Free energy (A=E-TS)       =   -3653.897357200427
Est. 0K Energy 0.5*(E+A)   =   -3653.897337033087
Residual Non-orthogonality =       0.000000000000
Residual N_electrons       =       0.000000000025

Spin          Integrated_Ne            Fermi_level     Delta_Fermi_level
   1      2559.999999999897         0.242251928400              8.13E-04

                           Spin 1          
     Orb      H-eigenvalues     Occupancies
       1 |    -0.4820682986    1.0000000000 | 
                          ------
    1276 |     0.2095337550    0.9999674136 | 
    1277 |     0.2100375670    0.9999617944 | 
    1278 |     0.2100529463    0.9999616085 | 
    1279 |     0.2105239337    0.9999554524 | 
    1280 |     0.2110292566    0.9999477459 | 
                 - Gap at zero temperature -
    1281 |     0.2757334970    0.0000256064 | 
    1282 |     0.2757635857    0.0000253642 | 
    1283 |     0.2759011856    0.0000242858 | 
    1284 |     0.2760402206    0.0000232426 | 
    1285 |     0.2760482888    0.0000231835 | 
                          ------
    2560 |     1.0746440221    0.0000000000 | 

                       |  Abs_value |  Threshold | Converged
     Delta_Free_energy |   4.62E-04 |   1.00E-06 |        No
     Delta_Energy      |   4.62E-04 |   1.00E-04 |        No
     Delta_Entropy     |   5.41E-07 |   1.00E-04 |       Yes
     Commutator        |   1.58E-05 |   1.00E-05 |        No
     Delta_Fermi_level |   8.13E-04 |   1.00E-03 |       Yes

  Line search of the free energy minimum:
  Step_type        Step             Free_energy   Predicted_free_energy
.   Initial    0.000000    -3653.89735720042745
.    Trial1    0.311743    -3653.89753780199771
.    Trial2    0.574634    -3653.89725205522427
. Quadratic    0.255766    -3653.89754696152386    -3653.89754688815719

--------------------------------------------------------------------------------
  Iter                              Commutator    Free_energy(A=E-TS)     DeltaA
#    3                          0.000010971132   -3653.89754696152386  -1.90E-04

Step                       =       0.255765929961
Energy                     =   -3653.897506913155
Entropy (-TS)              =      -0.000040048261
Free energy (A=E-TS)       =   -3653.897546961524
Est. 0K Energy 0.5*(E+A)   =   -3653.897526937340
Residual Non-orthogonality =       0.000000000000
Residual N_electrons       =      -0.000000000108

Spin          Integrated_Ne            Fermi_level     Delta_Fermi_level
   1      2560.000000000444         0.242715373975              4.63E-04

                           Spin 1          
     Orb      H-eigenvalues     Occupancies
       1 |    -0.4817877594    1.0000000000 | 
                          ------
    1276 |     0.2099732066    0.9999676595 | 
    1277 |     0.2104774137    0.9999620781 | 
    1278 |     0.2104957942    0.9999618573 | 
    1279 |     0.2109601205    0.9999558342 | 
    1280 |     0.2114688145    0.9999481386 | 
                 - Gap at zero temperature -
    1281 |     0.2762193998    0.0000254254 | 
    1282 |     0.2762523845    0.0000251620 | 
    1283 |     0.2763886854    0.0000241020 | 
    1284 |     0.2765276921    0.0000230670 | 
    1285 |     0.2765325165    0.0000230319 | 
                          ------
    2560 |     1.0754666698    0.0000000000 | 

                       |  Abs_value |  Threshold | Converged
     Delta_Free_energy |   1.90E-04 |   1.00E-06 |        No
     Delta_Energy      |   1.90E-04 |   1.00E-04 |        No
     Delta_Entropy     |   2.86E-07 |   1.00E-04 |       Yes
     Commutator        |   1.10E-05 |   1.00E-05 |        No
     Delta_Fermi_level |   4.63E-04 |   1.00E-03 |       Yes

  Line search of the free energy minimum:
  Step_type        Step             Free_energy   Predicted_free_energy
.   Initial    0.000000    -3653.89754696152386
.    Trial1    0.255766    -3653.89763795424369
.    Trial2    0.540038    -3653.89756338591906
. Quadratic    0.283306    -3653.89763881373210    -3653.89763882228272

--------------------------------------------------------------------------------
  Iter                              Commutator    Free_energy(A=E-TS)     DeltaA
#    4                          0.000008195337   -3653.89763881373210  -9.19E-05

Step                       =       0.283305676363
Energy                     =   -3653.897598996205
Entropy (-TS)              =      -0.000039817645
Free energy (A=E-TS)       =   -3653.897638813732
Est. 0K Energy 0.5*(E+A)   =   -3653.897618904968
Residual Non-orthogonality =       0.000000000000
Residual N_electrons       =       0.000000000118

Spin          Integrated_Ne            Fermi_level     Delta_Fermi_level
   1      2559.999999999516         0.243096079778              3.81E-04

                           Spin 1          
[...]
 C   275 -- C   555       -0.09      5.37000
 C   274 -- C   554       -0.09      5.37000
 C   273 -- C   553       -0.09      5.37000
 C   272 -- C   552       -0.09      5.37000
 C   271 -- C   551       -0.09      5.37000
 C   270 -- C   550       -0.09      5.37000
 C   269 -- C   549       -0.09      5.37000
 C   268 -- C   548       -0.09      5.37000
 C   267 -- C   547       -0.09      5.37000
 C   266 -- C   546       -0.09      5.37000
 C   130 -- C   465       -0.09      5.37000
 C   129 -- C   464       -0.09      5.37000
 C   128 -- C   463       -0.09      5.37000
 C   127 -- C   462       -0.09      5.37000
 C   126 -- C   461       -0.09      5.37000
 C   240 -- C   525       -0.09      5.37000
 C   239 -- C   524       -0.09      5.37000
 C   238 -- C   523       -0.09      5.37000
 C   237 -- C   522       -0.09      5.37000
 C   236 -- C   521       -0.09      5.37000
 C    23 -- C   478       -0.09      5.37202
 C    49 -- C   469       -0.09      5.37202
 C    48 -- C   468       -0.09      5.37202
 C    47 -- C   467       -0.09      5.37202
 C    22 -- C   477       -0.09      5.37202
 C    46 -- C   466       -0.09      5.37202
 C    21 -- C   476       -0.09      5.37202
 C    25 -- C   480       -0.09      5.37202
 C    24 -- C   479       -0.09      5.37202
 C    50 -- C   470       -0.09      5.37202
 C    24 -- C   449       -0.09      5.37202
 C     6 -- C   416       -0.09      5.37202
 C    23 -- C   448       -0.09      5.37202
 C    22 -- C   447       -0.09      5.37202
 C    10 -- C   470       -0.09      5.37202
 C     5 -- C   450       -0.09      5.37202
 C    21 -- C   446       -0.09      5.37202
 C    10 -- C   420       -0.09      5.37202
 C     9 -- C   469       -0.09      5.37202
 C     9 -- C   419       -0.09      5.37202
 C     8 -- C   468       -0.09      5.37202
 C     4 -- C   449       -0.09      5.37202
 C     8 -- C   418       -0.09      5.37202
 C   285 -- C   580       -0.09      5.37202
 C   284 -- C   579       -0.09      5.37202
 C   283 -- C   578       -0.09      5.37202
 C   282 -- C   577       -0.09      5.37202
 C   281 -- C   576       -0.09      5.37202
 C     2 -- C   447       -0.09      5.37202
 C     7 -- C   467       -0.09      5.37202
 C   260 -- C   605       -0.09      5.37202
 C   259 -- C   604       -0.09      5.37202
 C   258 -- C   603       -0.09      5.37202
 C   257 -- C   602       -0.09      5.37202
 C   256 -- C   601       -0.09      5.37202
 C     7 -- C   417       -0.09      5.37202
 C     1 -- C   446       -0.09      5.37202
 C     6 -- C   466       -0.09      5.37202
 C    25 -- C   450       -0.09      5.37202
 C     3 -- C   448       -0.09      5.37202
 C   219 -- C   569       -0.09      5.37202
 C   218 -- C   568       -0.09      5.37202
 C   217 -- C   567       -0.09      5.37202
 C   216 -- C   566       -0.09      5.37202
 C   250 -- C   540       -0.09      5.37202
 C   249 -- C   539       -0.09      5.37202
 C   248 -- C   538       -0.09      5.37202
 C   247 -- C   537       -0.09      5.37202
 C   246 -- C   536       -0.09      5.37202
 C   220 -- C   570       -0.09      5.37202
 C   205 -- C   550       -0.09      5.37202
 C   204 -- C   549       -0.09      5.37202
 C   203 -- C   548       -0.09      5.37202
 C   202 -- C   547       -0.09      5.37202
 C   201 -- C   546       -0.09      5.37202
 C    95 -- C   365       -0.09      5.37202
 C    94 -- C   364       -0.09      5.37202
 C    93 -- C   363       -0.09      5.37202
 C    92 -- C   362       -0.09      5.37202
 C    91 -- C   361       -0.09      5.37202
 C    65 -- C   395       -0.09      5.37202
 C    64 -- C   394       -0.09      5.37202
 C    63 -- C   393       -0.09      5.37202
 C    30 -- C   355       -0.09      5.37202
 C    62 -- C   392       -0.09      5.37202
 C    61 -- C   391       -0.09      5.37202
 C    29 -- C   354       -0.09      5.37202
 C   260 -- C   550       -0.09      5.37202
 C   259 -- C   549       -0.09      5.37202
 C    28 -- C   353       -0.09      5.37202
 C   258 -- C   548       -0.09      5.37202
 C   257 -- C   547       -0.09      5.37202
 C   256 -- C   546       -0.09      5.37202
 C    27 -- C   352       -0.09      5.37202
 C    26 -- C   351       -0.09      5.37202
 C    55 -- C   335       -0.09      5.37202
 C    54 -- C   334       -0.09      5.37202
 C    53 -- C   333       -0.09      5.37202
 C   230 -- C   580       -0.09      5.37202
 C   230 -- C   525       -0.09      5.37202
 C   229 -- C   579       -0.09      5.37202
 C   229 -- C   524       -0.09      5.37202
 C   228 -- C   578       -0.09      5.37202
 C    52 -- C   332       -0.09      5.37202
 C   228 -- C   523       -0.09      5.37202
 C   227 -- C   577       -0.09      5.37202
 C   227 -- C   522       -0.09      5.37202
 C   226 -- C   576       -0.09      5.37202
 C   226 -- C   521       -0.09      5.37202
 C    51 -- C   331       -0.09      5.37202
 C   220 -- C   515       -0.09      5.37202
 C   219 -- C   514       -0.09      5.37202
 C   218 -- C   513       -0.09      5.37202
 C   217 -- C   512       -0.09      5.37202
 C   216 -- C   511       -0.09      5.37202
 C   195 -- C   540       -0.09      5.37202
 C   195 -- C   500       -0.09      5.37202
 C   194 -- C   539       -0.09      5.37202
 C   194 -- C   499       -0.09      5.37202
 C   193 -- C   538       -0.09      5.37202
 C   193 -- C   498       -0.09      5.37202
 C   192 -- C   537       -0.09      5.37202
 C   192 -- C   497       -0.09      5.37202
 C   191 -- C   536       -0.09      5.37202
 C   191 -- C   496       -0.09      5.37202
 C   180 -- C   515       -0.09      5.37202
 C   179 -- C   514       -0.09      5.37202
 C   178 -- C   513       -0.09      5.37202
 C   177 -- C   512       -0.09      5.37202
 C   176 -- C   511       -0.09      5.37202
 C   150 -- C   440       -0.09      5.37202
 C   149 -- C   439       -0.09      5.37202
 C   148 -- C   438       -0.09      5.37202
 C   147 -- C   437       -0.09      5.37202
 C   146 -- C   436       -0.09      5.37202
 C   135 -- C   460       -0.09      5.37202
 C   134 -- C   459       -0.09      5.37202
 C   133 -- C   458       -0.09      5.37202
 C   132 -- C   457       -0.09      5.37202
 C   131 -- C   456       -0.09      5.37202
 C    11 -- C   331       -0.09      5.37202
 C    95 -- C   425       -0.09      5.37202
 C    94 -- C   424       -0.09      5.37202
 C    93 -- C   423       -0.09      5.37202
 C    92 -- C   422       -0.09      5.37202
 C    91 -- C   421       -0.09      5.37202
 C    85 -- C   355       -0.09      5.37202
 C    40 -- C   365       -0.09      5.37202
 C    84 -- C   354       -0.09      5.37202
 C    83 -- C   353       -0.09      5.37202
 C    82 -- C   352       -0.09      5.37202
 C    39 -- C   364       -0.09      5.37202
 C    81 -- C   351       -0.09      5.37202
 C    38 -- C   363       -0.09      5.37202
 C    37 -- C   362       -0.09      5.37202
 C    36 -- C   361       -0.09      5.37202
 C    15 -- C   335       -0.09      5.37202
 C    65 -- C   345       -0.09      5.37202
 C    64 -- C   344       -0.09      5.37202
 C    63 -- C   343       -0.09      5.37202
 C    30 -- C   325       -0.09      5.37202
 C    62 -- C   342       -0.09      5.37202
 C    14 -- C   334       -0.09      5.37202
 C    61 -- C   341       -0.09      5.37202
 C    29 -- C   324       -0.09      5.37202
 C    28 -- C   323       -0.09      5.37202
 C    13 -- C   333       -0.09      5.37202
 C    27 -- C   322       -0.09      5.37202
 C   120 -- C   395       -0.09      5.37202
 C    55 -- C   385       -0.09      5.37202
 C   119 -- C   394       -0.09      5.37202
 C   118 -- C   393       -0.09      5.37202
 C   117 -- C   392       -0.09      5.37202
 C    54 -- C   384       -0.09      5.37202
 C    26 -- C   321       -0.09      5.37202
 C   116 -- C   391       -0.09      5.37202
 C    53 -- C   383       -0.09      5.37202
 C    12 -- C   332       -0.09      5.37202
 C    52 -- C   382       -0.09      5.37202
 C    51 -- C   381       -0.09      5.37202
 C   106 -- C   436       -0.09      5.37202
 C   106 -- C   376       -0.09      5.37202
 C    80 -- C   410       -0.09      5.37202
 C    79 -- C   409       -0.09      5.37202
 C    78 -- C   408       -0.09      5.37202
 C    77 -- C   407       -0.09      5.37202
 C    76 -- C   406       -0.09      5.37202
 C   135 -- C   410       -0.09      5.37202
 C   134 -- C   409       -0.09      5.37202
 C   133 -- C   408       -0.09      5.37202
 C   132 -- C   407       -0.09      5.37202
 C   131 -- C   406       -0.09      5.37202
 C   110 -- C   440       -0.09      5.37202
 C   110 -- C   380       -0.09      5.37202
 C   109 -- C   439       -0.09      5.37202
 C   109 -- C   379       -0.09      5.37202
 C   108 -- C   438       -0.09      5.37202
 C   108 -- C   378       -0.09      5.37202
 C   107 -- C   437       -0.09      5.37202
 C   107 -- C   377       -0.09      5.37202
 C   215 -- C   635       -0.09      5.38000
 C   214 -- C   634       -0.09      5.38000
 C   213 -- C   633       -0.09      5.38000
 C   212 -- C   632       -0.09      5.38000
 C   211 -- C   631       -0.09      5.38000
 C   190 -- C   620       -0.09      5.38000
 C   189 -- C   619       -0.09      5.38000
 C   188 -- C   618       -0.09      5.38000
 C   187 -- C   617       -0.09      5.38000
 C   186 -- C   616       -0.09      5.38000
 C   175 -- C   595       -0.09      5.38000
 C   174 -- C   594       -0.09      5.38000
 C   173 -- C   593       -0.09      5.38000
 C   172 -- C   592       -0.09      5.38000
 C   171 -- C   591       -0.09      5.38000
 C   245 -- C   640       -0.09      5.38000
 C   244 -- C   639       -0.09      5.38000
 C   243 -- C   638       -0.09      5.38000
 C   242 -- C   637       -0.09      5.38000
 C   241 -- C   636       -0.09      5.38000
==================================================


=================== Orbital energy and occupancy information ===================

      Total number of orbitals:    2560
        Occupancy sum (kernel):    1280.000000000
   Occupancy sum (eigenvalues):    1280.000000000
                 HOMO-LUMO gap:       0.000017869 Eh
                 Mid-gap level:       0.312739330 Eh

                        Orbital | Energy (Eh) | Occupancy
                            1    -0.445141572   1.0000000
                        .......   ...........   .........
                         1272     0.245497568   0.9999865
                         1273     0.245939240   0.9999844
                         1274     0.245966219   0.9999843
                         1275     0.249827867   0.9999468
                         1276     0.249833888   0.9999467
                         1277     0.250227410   0.9999396
                         1278     0.250263409   0.9999390
                         1279     0.250269590   0.9999389
                         1280     0.250643255   0.9999312
                         1281     0.312730396   0.0000443
                        ....... -- gap at 0K -- .........
                         1282     0.312748265   0.0000441
                         1283     0.312984878   0.0000409
                         1284     0.313002387   0.0000407
                         1285     0.313946732   0.0000303
                         1286     0.313958904   0.0000302
                         1287     0.314219965   0.0000278
                         1288     0.314231990   0.0000277
                         1289     0.314738484   0.0000236
                         1290     0.315018899   0.0000216
                         1291     0.315183270   0.0000203
                        .......   ...........   .........
                         2560     1.169127983   0.0000000

================================================================================

===================== Writing canonical molecular orbitals =====================
| Orbital  Energy (eV)  Norm     |
| HOMO      8.50982708  1.000000 | Writing "3.1661816_GO_manual_4x64graphite_HOMO.cube" ... done
Writing "3.1661816_GO_manual_4x64graphite_HOMO.dx" ... done
| LUMO      8.51031331  1.000000 | Writing "3.1661816_GO_manual_4x64graphite_LUMO.cube" ... done
Writing "3.1661816_GO_manual_4x64graphite_LUMO.dx" ... done
================================================================================
 
===================== Density of States (DOS) calculation ======================
Writing "3.1661816_GO_manual_4x64graphite_DOS.txt" ...  done
================================================================================
 
Writing bands to file "3.1661816_GO_manual_4x64graphite.val_bands" ... done
 
================ Projected Density of States (pDOS) calculation ================
 
Constructing AM resolved functions  ...... done
Writing NGWF plot files in formats: CUBE DX ...  done
 
Performing overlap integrals ...  done
 
Computing pDOS weights ...  done
 
All bands spilling parameter =   3.92 %
Occupancy-weighted spilling parameter =   0.81 %
 
 => Outputting data for OptaDOS <=
 
Writing pDOS weights to file "3.1661816_GO_manual_4x64graphite.val_pdos_bin" ... done
 
Writing band gradients to file "3.1661816_GO_manual_4x64graphite.val_dome_bin" ... done
 
Writing Castep output cell file to "3.1661816_GO_manual_4x64graphite-out.cell" ... done
 
 => Computing Gaussian smeared pDOS <= 
Writing "3.1661816_GO_manual_4x64graphite_PDOS.txt" ...  done
 
 => Computing Occupancy-weighted Gaussian smeared pDOS <= 
Writing "3.1661816_GO_manual_4x64graphite_occ_PDOS.txt" ...  done
  => Band centres: 
 S band centre of group 1:  -15.537078 eV
 P band centre of group 1:   -8.440076 eV
  Band centres done. <=
  => Integrated number of electrons in each AM band: 
 S num electrons of group 1:  574.550615
 P num electrons of group 1: 1964.607211
  Integrated number of electrons done. <=
================================================================================

------------------------------ TIMING INFORMATION ------------------------------
AVERAGE TIME:    4462.438s on     40 node(s)                                    
TOTAL TIME:      4462.438s on     40 node(s)                                    
================= AVERAGE TIMINGS FROM ALL NODES (CUMULATIVE) ==================
|| TAG                                    #calls    cpu time   %total  Gflops ||
|| work_imbalance                       :     1        0.00s   0.000%  ------ ||
|| paw_tcore_density                    :     1        0.01s   0.000%  ------ ||
|| paw_tcore_hartree_on_grid            :     1        0.01s   0.000%  ------ ||
|| paw_sphere_density_on_grid           :     1        0.01s   0.000%  ------ ||
|| sparse_set_to_garbage                :   183        0.03s   0.001%  ------ ||
|| paw_dij_hartree                      :   401        0.05s   0.001%  ------ ||
|| pseudo_make_structure_factor         :     1        0.06s   0.001%  ------ ||
|| basis_extract_function_from_box      :  2048        0.09s   0.002%  ------ ||
|| paw_species_calc_proj_prec_mat       :     1        0.12s   0.003%  ------ ||
|| paw_dataset_init                     :     1        0.17s   0.004%  ------ ||
|| density_init_guess_real              :     1        0.23s   0.005%  ------ ||
|| ngwfs_initialise_from_radial         :     2        0.66s   0.015%  ------ ||
|| restart_kernel_write                 :    17        0.91s   0.020%  ------ ||
|| sparse_init                          :     1        1.04s   0.023%  ------ ||
|| dense_normal_eigensolve              :     1        1.04s   0.023%  ------ ||
|| hartree_on_grid                      :   300        1.65s   0.037%  ------ ||
|| ewald_calculate_energy               :     1        2.42s   0.054%  ------ ||
|| projectors_init_fftbox_recip         :   161        3.09s   0.069%  ------ ||
|| fourier_apply_box_pair               :  3040        5.03s   0.113% 560.736 ||
|| basis_copy_function_to_box           : 28416        6.16s   0.138%  ------ ||
|| augmentation_screen_dij              :   307        6.70s   0.150%  ------ ||
|| sw_init                              :     1        6.73s   0.151%  ------ ||
|| sparse_embed_hotelling_invert_embed  :    31        8.94s   0.200%  ------ ||
|| ngwf_gradient_coeffs                 :    16       12.63s   0.283%  ------ ||
|| cell_grid_extract_box_real           : 12092       16.42s   0.368%  ------ ||
|| sparse_trace                         :  3642       20.78s   0.466%  ------ ||
|| fourier_apply_cell_backward          :  9271       21.45s   0.481%  47.713 ||
|| fourier_apply_cell_forward           :  8672       22.19s   0.497%  43.137 ||
|| cell_grid_deposit_box_real           : 38576       23.72s   0.531%  ------ ||
|| paw_dij_xc                           :   401       27.18s   0.609%  ------ ||
|| aug_nonlocal_mat                     :   385       41.12s   0.922%  ------ ||
|| density_fftbox_deposit_to_cell       : 19200       48.06s   1.077%  ------ ||
|| eigenstates_pdos                     :     1       55.48s   1.243%  ------ ||
|| augmentation_density_on_grid         :   300       58.16s   1.303%  ------ ||
|| eigenstates_calculate                :     1       59.68s   1.337%  ------ ||
|| function_ops_brappd_ketppd           :    64       66.31s   1.486%  ------ ||
|| hamiltonian_energy_components        :     4       66.91s   1.499%  ------ ||
|| projectors_func_ovlp_box             :    32       76.81s   1.721%  ------ ||
|| nlxc_vdw_energy                      :   598       84.89s   1.902%  ------ ||
|| xc_energy_potential                  :   299       92.26s   2.067%  ------ ||
|| properties_calculate                 :     1      104.64s   2.345%  ------ ||
|| integrals_kinetic                    :    31      115.31s   2.584%  ------ ||
|| dense_eigensolve                     :   264      125.09s   2.803%  ------ ||
|| restart_ngwfs_tightbox_output        :    15      144.77s   3.244%  ------ ||
|| potential_apply_to_ngwf_batch        :   384      148.99s   3.339%  ------ ||
|| sparse_product                       :  3634      162.44s   3.640%  ------ ||
|| basis_dot_function_with_box          : 9.569M     255.70s   5.730%  ------ ||
|| fourier_apply_box                    : 89120      277.25s   6.213% 981.507 ||
|| edft_diag_ngwf_ham                   :   263      286.65s   6.424%  ------ ||
|| projectors_gradient_batch            :    64      295.96s   6.632%  ------ ||
|| integrals_locpot_mat_els_batch       :   384      358.43s   8.032%  ------ ||
|| density_fftbox_interpolate_multiply  : 19200      372.31s   8.343%  ------ ||
|| projectors_grad_precond_batch        :    64      441.03s   9.883%  ------ ||
|| density_batch_interp_deposit         :  1200      465.53s  10.432%  ------ ||
|| integrals_locpot_dbl_grid            :    96      509.43s  11.416%  ------ ||
|| edft_apply_smearing_operator         :   263      564.87s  12.658%  ------ ||
|| basis_add_function_to_box            : 26.74M     683.98s  15.327%  ------ ||
|| ngwf_gradient_build_batch            :    64      785.15s  17.595%  ------ ||
|| density_batch_row_sums               :  1200     1008.02s  22.589%  ------ ||
|| ngwf_gradient_batch                  :    64     1039.90s  23.303%  ------ ||
|| ngwf_gradient_lnv                    :    16     1068.32s  23.940%  ------ ||
|| density_on_dbl_grid                  :   300     1487.42s  33.332%  ------ ||
|| hamiltonian_lhxc_calculate           :   294     1611.08s  36.103%  ------ ||
|| edft_calculate                       :    16     2672.59s  59.891%  ------ ||
|| ngwf_cg_optimise                     :     1     4331.21s  97.059%  ------ ||
|| total_time                           :     1     4462.44s 100.000%  ------ ||
================================================================================
Overhead of generating timer report: 
- 0 ms averaging over threads,
- 6 ms ensuring consistency across MPI ranks,
- 0 ms printing in order.

Job completed: 25-02-2020 11:35 (-0000)

