 +---------------------------------------------------------------+
 |                                                               |
 |        ####### #     # ####### ####### ####### ######         |
 |        #     # ##    # #          #    #       #     #        |
 |        #     # # #   # #          #    #       #     #        |
 |        #     # #  #  # #####      #    #####   ######         |
 |        #     # #   # # #          #    #       #              |
 |        #     # #    ## #          #    #       #              |
 |        ####### #     # #######    #    ####### #              |
 |                                                               |
 |        Linear-Scaling Ab Initio Total Energy Program          |
 |                                                               |
 |          Release for academic collaborators of ODG            |
 |                                             Version 5.3.2.12  |
 |                                                               |
 +---------------------------------------------------------------+
 |                                                               |
 |  Authors:                                                     |
 |  Jacek Dziedzic, Peter D. Haynes, Nicholas D. M. Hine,        |
 |  Arash. A. Mostofi, Mike C. Payne and Chris-Kriton Skylaris   |
 |                                                               |
 |  Contributors:                                                |
 |  J. Aarons, L. Andrinopoulos, P. W. Avraam, R. A. Bell,       |
 |  A. Bhandari, G. A. Bramley, R. J. Charlton, S. J. Clark,     |
 |  R. J. Clements, G. C. Constantinescu, F. Corsetti,           |
 |  N. Corsini, O. Dieguez, S. M. M. Dubois, K. K. B. Duff,      |
 |  J. M. Escartin, A. Greco, H. Helal, Q. O. Hill, L. P. Lee,   |
 |  J.-H. Li, E. B. Linscott, G. Moynihan, D. D. O`Regan,        |
 |  O. K. Okan, M. J. S. Phipps, C. J. Pickard,                  |
 |  J. C. A. Prentice, M. I. J. Probert, L. E. Ratcliff,         |
 |  M. Robinson, A. Ruiz Serrano, J. S. Spencer, E. W. Tait,     |
 |  G. Teobaldi, D. Turban, V. Vitale, K. A. Wilkinson,          |
 |  C. Weber, J. C. Womack, N. Yeung and T. J. Zuehlsdorff       |
 |                                                               |
 |                                   Copyright (c) 2004-2020     |
 |                                                               |
 |  Please cite:                                                 |
 |  "Introducing ONETEP: Linear-scaling density functional       |
 |   simulations on parallel computers".                         |
 |   C.-K. Skylaris, P. D. Haynes, A. A. Mostofi, M. C. Payne.   |
 |   J. Chem. Phys. 122 084119 (2005).                           |
 |                                                               |
 |          in all publications arising from your use of ONETEP. |
 |                                                               |
 +---------------------------------------------------------------+
 |                                                               |
 |   ONETEP is based on developments described in the following  |
 |   publications:                                               |
 |                                                               |
 |  "Nonorthogonal generalized Wannier function pseudopotential  |
 |   plane-wave method".                                         |
 |   C.-K. Skylaris, A. A. Mostofi, P. D. Haynes, O. Dieguez,    |
 |   M. C. Payne.                                                |
 |   Phys. Rev. B 66 035119 (2002).                              |
 |                                                               |
 |  "Preconditioned iterative minimization for linear-scaling    |
 |   electronic structure calculations".                         |
 |   A. A. Mostofi, P. D. Haynes, C.-K. Skylaris, M. C. Payne.   |
 |   J. Chem. Phys. 119(17), pp.8842-8848 (2003).                |
 |                                                               |
 |  "Total-energy calculations on a real space grid with         |
 |   localized functions and a plane-wave basis".                |
 |   A. A. Mostofi, C.-K. Skylaris, P. D. Haynes, M. C. Payne.   |
 |   Comput. Phys. Commun. 147, pp.788-802 (2002).               |
 |                                                               |
 |  "Accurate kinetic energy evaluation in electronic structure  |
 |   calculations with localized functions on real space grids"  |
 |   C.-K. Skylaris, A. A. Mostofi, P. D. Haynes, C. J. Pickard, |
 |   M. C. Payne.                                                |
 |   Comput. Phys. Commun. 140, pp.315-322 (2001).               |
 |                                                               |
 |  "Accurate ionic forces and geometry optimization in linear-  |
 |   scaling density-functional theory with local orbitals"      |
 |   N. D. M. Hine, M. Robinson, P. D. Haynes, C.-K. Skylaris,   |
 |   M. C. Payne, and A. A. Mostofi.                             |
 |   Phys. Rev. B 83 195102 (2011).                              |
 |                                                               |
 +---------------------------------------------------------------+

Job started: 25-02-2020 10:57 (-0000)
 
Reading parameters from file "3.1930128_GO_manual_4x64graphite.dat" ...

WARNING: "cutoff_energy" not specified, but "psinc_spacing" specified.
         Using the latter to set the KE cutoff energy to  732.32021eV,
         thus *overriding* the default.

... done

If your calculation crashes here, before "Checking processes and threads..."
is displayed, then your stack size is insufficient.
If so, use "ulimit -s unlimited" at runtime.
You can disable this check with "check_stack_size F".

Checking processes and threads...
   Determining the default number of threads...
      No default threads set at compilation time: defaulting to 1.
      OpenMP library call suggests 4 threads.
      Hybrid MPI-OpenMP compilation detected.
      Number of MPI processes > 1.
      OMP_NUM_THREADS environment variable present and
      its value matches the one obtained from the OpenMP library call.
      Using this value as default.
      Default threads: 4
      Default applies to threads_max and threads_num_fftboxes.
      Settings in the input file override this default.
   ... done

   Running with 40 MPI processes.
   There are 10 MPI processes running on the same node as the root process.
   Each MPI process is using: 
               1 threads for simulation cell FFTs.
               1 threads for parallel FFT box operations.
               4 threads for loops over batched FFT box operations.
               4 threads in other parallel regions.
... done

Basic input checks...
Resetting ngwf_cg_rotate to TRUE for EDFT calculations
... done

Reading geometry and species blocks from file "3.1930128_GO_manual_4x64graphite.dat" ...
    
  PSINC grid spacing along a1 set to   0.511215680000a0 from input file.
  PSINC grid spacing along a2 set to   0.531284090000a0 from input file.
  PSINC grid spacing along a3 set to   0.507053120000a0 from input file.
  Number of PPD points along a3 set to 1.  This is 
  the default value, it may have been provided also in the input file.
... done
 Writing xyz coordinates to file "3.1930128_GO_manual_4x64graphite.xyz" ... done


--------------------------------------------------------------------------------
---------------------------------- INPUT FILE ----------------------------------
--------------------------------------------------------------------------------

task : singlepoint                                                              
do_properties : true                                                            
dx_format T                                                                     
edft T                                                                          
output_detail VERBOSE                                                           
write_xyz T                                                                     
xc_functional OPTB88                                                            
PSINC_SPACING 0.51121568 0.53128409 0.50705312                                  
paw T                                                                           
pdos_max_l = 2                                                                  
dos_smear  0.1 eV                                                               
popn_calculate T                                                                
PDOS_PSEUDOATOMIC T                                                             
PDOS_REDUCE_SWS F                                                               
PDOS_CONSTRUCT_BASIS F                                                          
PDOS_LOWDIN T                                                                   
PDOS_ORTH_ATOM_BLOCKS F                                                         
PDOS_LCAO_OPTIMIZE F                                                            
pdos_optados_output T                                                           
homo_plot 0                                                                     
lumo_plot 0                                                                     
homo_dens_plot -1                                                               
lumo_dens_plot -1                                                               
%BLOCK SPECIES                                                                  
C C 6 4 9.0                                                                     
%ENDBLOCK SPECIES                                                               
%BLOCK SPECIES_POT                                                              
C "~/pp/paw/c_pbe_abinit.paw"                                                   
%ENDBLOCK SPECIES_POT                                                           
%BLOCK SPECIES_ATOMIC_SET                                                       
C "SOLVE conf=2s2 2p2"                                                          
%ENDBLOCK SPECIES_ATOMIC_SET                                                    
%BLOCK LATTICE_CART                                                             
32.21  0.00  0.00                                                               
0.00 18.59  0.00                                                                
0.00  0.00 60.34                                                                
%ENDBLOCK LATTICE_CART                                                          
%BLOCK POSITIONS_ABS                                                            
C  0.00  0.00  3.02                                                             
C  0.00  0.00 15.08                                                             
C  0.00  0.00 27.15                                                             
C  0.00  0.00 39.22                                                             
C  0.00  0.00 51.29                                                             
C  0.00  4.65  3.02                                                             
C  0.00  4.65 15.08                                                             
C  0.00  4.65 27.15                                                             
C  0.00  4.65 39.22                                                             
C  0.00  4.65 51.29                                                             
C  4.03  2.32  3.02                                                             
C  4.03  2.32 15.08                                                             
C  4.03  2.32 27.15                                                             
C  4.03  2.32 39.22                                                             
C  4.03  2.32 51.29                                                             
C  8.05  0.00  3.02                                                             
C  8.05  0.00 15.08                                                             
C  8.05  0.00 27.15                                                             
C  8.05  0.00 39.22                                                             
C  8.05  0.00 51.29                                                             
C  0.00  9.30  3.02                                                             
C  0.00  9.30 15.08                                                             
C  0.00  9.30 27.15                                                             
C  0.00  9.30 39.22                                                             
C  0.00  9.30 51.29                                                             
C  4.03  6.97  3.02                                                             
C  4.03  6.97 15.08                                                             
C  4.03  6.97 27.15                                                             
C  4.03  6.97 39.22                                                             
C  4.03  6.97 51.29                                                             
C  8.05  4.65  3.02                                                             
C  8.05  4.65 15.08                                                             
C  8.05  4.65 27.15                                                             
C  8.05  4.65 39.22                                                             
C  8.05  4.65 51.29                                                             
C 12.08  2.32  3.02                                                             
C 12.08  2.32 15.08                                                             
C 12.08  2.32 27.15                                                             
C 12.08  2.32 39.22                                                             
C 12.08  2.32 51.29                                                             
C 16.10  0.00  3.02                                                             
C 16.10  0.00 15.08                                                             
C 16.10  0.00 27.15                                                             
C 16.10  0.00 39.22                                                             
C 16.10  0.00 51.29                                                             
C  0.00 13.95  3.02                                                             
C  0.00 13.95 15.08                                                             
C  0.00 13.95 27.15                                                             
C  0.00 13.95 39.22                                                             
C  0.00 13.95 51.29                                                             
C  4.03 11.62  3.02                                                             
C  4.03 11.62 15.08                                                             
C  4.03 11.62 27.15                                                             
C  4.03 11.62 39.22                                                             
C  4.03 11.62 51.29                                                             
C  8.05  9.30  3.02                                                             
C  8.05  9.30 15.08                                                             
C  8.05  9.30 27.15                                                             
C  8.05  9.30 39.22                                                             
C  8.05  9.30 51.29                                                             
C 12.08  6.97  3.02                                                             
C 12.08  6.97 15.08                                                             
C 12.08  6.97 27.15                                                             
C 12.08  6.97 39.22                                                             
C 12.08  6.97 51.29                                                             
C 16.10  4.65  3.02                                                             
C 16.10  4.65 15.08                                                             
C 16.10  4.65 27.15                                                             
C 16.10  4.65 39.22                                                             
C 16.10  4.65 51.29                                                             
C 20.13  2.32  3.02                                                             
C 20.13  2.32 15.08                                                             
C 20.13  2.32 27.15                                                             
C 20.13  2.32 39.22                                                             
C 20.13  2.32 51.29                                                             
C 24.16  0.00  3.02                                                             
C 24.16  0.00 15.08                                                             
C 24.16  0.00 27.15                                                             
C 24.16  0.00 39.22                                                             
C 24.16  0.00 51.29                                                             
C  4.03 16.27  3.02                                                             
C  4.03 16.27 15.08                                                             
C  4.03 16.27 27.15                                                             
C  4.03 16.27 39.22                                                             
C  4.03 16.27 51.29                                                             
C  8.05 13.95  3.02                                                             
C  8.05 13.95 15.08                                                             
C  8.05 13.95 27.15                                                             
C  8.05 13.95 39.22                                                             
C  8.05 13.95 51.29                                                             
C 12.08 11.62  3.02                                                             
C 12.08 11.62 15.08                                                             
C 12.08 11.62 27.15                                                             
C 12.08 11.62 39.22                                                             
C 12.08 11.62 51.29                                                             
C 16.10  9.30  3.02                                                             
C 16.10  9.30 15.08                                                             
C 16.10  9.30 27.15                                                             
C 16.10  9.30 39.22                                                             
C 16.10  9.30 51.29                                                             
C 20.13  6.97  3.02                                                             
C 20.13  6.97 15.08                                                             
C 20.13  6.97 27.15                                                             
C 20.13  6.97 39.22                                                             
C 20.13  6.97 51.29                                                             
C 24.16  4.65  3.02                                                             
C 24.16  4.65 15.08                                                             
C 24.16  4.65 27.15                                                             
C 24.16  4.65 39.22                                                             
C 24.16  4.65 51.29                                                             
C 28.18  2.32  3.02                                                             
C 28.18  2.32 15.08                                                             
C 28.18  2.32 27.15                                                             
C 28.18  2.32 39.22                                                             
C 28.18  2.32 51.29                                                             
C 12.08 16.27  3.02                                                             
C 12.08 16.27 15.08                                                             
C 12.08 16.27 27.15                                                             
C 12.08 16.27 39.22                                                             
C 12.08 16.27 51.29                                                             
C 16.10 13.95  3.02                                                             
C 16.10 13.95 15.08                                                             
C 16.10 13.95 27.15                                                             
C 16.10 13.95 39.22                                                             
C 16.10 13.95 51.29                                                             
C 20.13 11.62  3.02                                                             
C 20.13 11.62 15.08                                                             
C 20.13 11.62 27.15                                                             
C 20.13 11.62 39.22                                                             
C 20.13 11.62 51.29                                                             
C 24.16  9.30  3.02                                                             
C 24.16  9.30 15.08                                                             
C 24.16  9.30 27.15                                                             
C 24.16  9.30 39.22                                                             
C 24.16  9.30 51.29                                                             
C 28.18  6.97  3.02                                                             
C 28.18  6.97 15.08                                                             
C 28.18  6.97 27.15                                                             
C 28.18  6.97 39.22                                                             
C 28.18  6.97 51.29                                                             
C 20.13 16.27  3.02                                                             
C 20.13 16.27 15.08                                                             
C 20.13 16.27 27.15                                                             
C 20.13 16.27 39.22                                                             
C 20.13 16.27 51.29                                                             
C 24.16 13.95  3.02                                                             
C 24.16 13.95 15.08                                                             
C 24.16 13.95 27.15                                                             
C 24.16 13.95 39.22                                                             
C 24.16 13.95 51.29                                                             
C 28.18 11.62  3.02                                                             
C 28.18 11.62 15.08                                                             
C 28.18 11.62 27.15                                                             
C 28.18 11.62 39.22                                                             
C 28.18 11.62 51.29                                                             
C 28.18 16.27  3.02                                                             
C 28.18 16.27 15.08                                                             
C 28.18 16.27 27.15                                                             
C 28.18 16.27 39.22                                                             
C 28.18 16.27 51.29                                                             
C  0.00  0.00  9.05                                                             
C  0.00  0.00 21.12                                                             
C  0.00  0.00 33.19                                                             
C  0.00  0.00 45.25                                                             
C  0.00  0.00 57.32                                                             
C  0.00  4.65  9.05                                                             
C  0.00  4.65 21.12                                                             
C  0.00  4.65 33.19                                                             
C  0.00  4.65 45.25                                                             
C  0.00  4.65 57.32                                                             
C  4.03  2.32  9.05                                                             
C  4.03  2.32 21.12                                                             
C  4.03  2.32 33.19                                                             
C  4.03  2.32 45.25                                                             
C  4.03  2.32 57.32                                                             
C  8.05  0.00  9.05                                                             
C  8.05  0.00 21.12                                                             
C  8.05  0.00 33.19                                                             
C  8.05  0.00 45.25                                                             
C  8.05  0.00 57.32                                                             
C  0.00  9.30  9.05                                                             
C  0.00  9.30 21.12                                                             
C  0.00  9.30 33.19                                                             
C  0.00  9.30 45.25                                                             
C  0.00  9.30 57.32                                                             
C  4.03  6.97  9.05                                                             
C  4.03  6.97 21.12                                                             
C  4.03  6.97 33.19                                                             
C  4.03  6.97 45.25                                                             
C  4.03  6.97 57.32                                                             
C  8.05  4.65  9.05                                                             
C  8.05  4.65 21.12                                                             
C  8.05  4.65 33.19                                                             
C  8.05  4.65 45.25                                                             
C  8.05  4.65 57.32                                                             
C 12.08  2.32  9.05                                                             
C 12.08  2.32 21.12                                                             
C 12.08  2.32 33.19                                                             
C 12.08  2.32 45.25                                                             
C 12.08  2.32 57.32                                                             
C 16.10  0.00  9.05                                                             
C 16.10  0.00 21.12                                                             
C 16.10  0.00 33.19                                                             
C 16.10  0.00 45.25                                                             
C 16.10  0.00 57.32                                                             
C  0.00 13.95  9.05                                                             
C  0.00 13.95 21.12                                                             
C  0.00 13.95 33.19                                                             
C  0.00 13.95 45.25                                                             
C  0.00 13.95 57.32                                                             
C  4.03 11.62  9.05                                                             
C  4.03 11.62 21.12                                                             
C  4.03 11.62 33.19                                                             
C  4.03 11.62 45.25                                                             
C  4.03 11.62 57.32                                                             
C  8.05  9.30  9.05                                                             
C  8.05  9.30 21.12                                                             
C  8.05  9.30 33.19                                                             
C  8.05  9.30 45.25                                                             
C  8.05  9.30 57.32                                                             
C 12.08  6.97  9.05                                                             
C 12.08  6.97 21.12                                                             
C 12.08  6.97 33.19                                                             
C 12.08  6.97 45.25                                                             
C 12.08  6.97 57.32                                                             
C 16.10  4.65  9.05                                                             
C 16.10  4.65 21.12                                                             
C 16.10  4.65 33.19                                                             
C 16.10  4.65 45.25                                                             
C 16.10  4.65 57.32                                                             
C 20.13  2.32  9.05                                                             
C 20.13  2.32 21.12                                                             
C 20.13  2.32 33.19                                                             
C 20.13  2.32 45.25                                                             
C 20.13  2.32 57.32                                                             
C 24.16  0.00  9.05                                                             
C 24.16  0.00 21.12                                                             
C 24.16  0.00 33.19                                                             
C 24.16  0.00 45.25                                                             
C 24.16  0.00 57.32                                                             
C  4.03 16.27  9.05                                                             
C  4.03 16.27 21.12                                                             
C  4.03 16.27 33.19                                                             
C  4.03 16.27 45.25                                                             
C  4.03 16.27 57.32                                                             
C  8.05 13.95  9.05                                                             
C  8.05 13.95 21.12                                                             
C  8.05 13.95 33.19                                                             
C  8.05 13.95 45.25                                                             
C  8.05 13.95 57.32                                                             
C 12.08 11.62  9.05                                                             
C 12.08 11.62 21.12                                                             
C 12.08 11.62 33.19                                                             
C 12.08 11.62 45.25                                                             
C 12.08 11.62 57.32                                                             
C 16.10  9.30  9.05                                                             
C 16.10  9.30 21.12                                                             
C 16.10  9.30 33.19                                                             
C 16.10  9.30 45.25                                                             
C 16.10  9.30 57.32                                                             
C 20.13  6.97  9.05                                                             
C 20.13  6.97 21.12                                                             
C 20.13  6.97 33.19                                                             
C 20.13  6.97 45.25                                                             
C 20.13  6.97 57.32                                                             
C 24.16  4.65  9.05                                                             
C 24.16  4.65 21.12                                                             
C 24.16  4.65 33.19                                                             
C 24.16  4.65 45.25                                                             
C 24.16  4.65 57.32                                                             
C 28.18  2.32  9.05                                                             
C 28.18  2.32 21.12                                                             
C 28.18  2.32 33.19                                                             
C 28.18  2.32 45.25                                                             
C 28.18  2.32 57.32                                                             
C 12.08 16.27  9.05                                                             
C 12.08 16.27 21.12                                                             
C 12.08 16.27 33.19                                                             
C 12.08 16.27 45.25                                                             
C 12.08 16.27 57.32                                                             
C 16.10 13.95  9.05                                                             
C 16.10 13.95 21.12                                                             
C 16.10 13.95 33.19                                                             
C 16.10 13.95 45.25                                                             
C 16.10 13.95 57.32                                                             
C 20.13 11.62  9.05                                                             
C 20.13 11.62 21.12                                                             
C 20.13 11.62 33.19                                                             
C 20.13 11.62 45.25                                                             
C 20.13 11.62 57.32                                                             
C 24.16  9.30  9.05                                                             
C 24.16  9.30 21.12                                                             
C 24.16  9.30 33.19                                                             
C 24.16  9.30 45.25                                                             
C 24.16  9.30 57.32                                                             
C 28.18  6.97  9.05                                                             
C 28.18  6.97 21.12                                                             
C 28.18  6.97 33.19                                                             
C 28.18  6.97 45.25                                                             
C 28.18  6.97 57.32                                                             
C 20.13 16.27  9.05                                                             
C 20.13 16.27 21.12                                                             
C 20.13 16.27 33.19                                                             
C 20.13 16.27 45.25                                                             
C 20.13 16.27 57.32                                                             
C 24.16 13.95  9.05                                                             
C 24.16 13.95 21.12                                                             
C 24.16 13.95 33.19                                                             
C 24.16 13.95 45.25                                                             
C 24.16 13.95 57.32                                                             
C 28.18 11.62  9.05                                                             
C 28.18 11.62 21.12                                                             
C 28.18 11.62 33.19                                                             
C 28.18 11.62 45.25                                                             
C 28.18 11.62 57.32                                                             
C 28.18 16.27  9.05                                                             
C 28.18 16.27 21.12                                                             
C 28.18 16.27 33.19                                                             
C 28.18 16.27 45.25                                                             
C 28.18 16.27 57.32                                                             
C  1.34  2.32  3.02                                                             
C  1.34  2.32 15.08                                                             
C  1.34  2.32 27.15                                                             
C  1.34  2.32 39.22                                                             
C  1.34  2.32 51.29                                                             
C  5.37  0.00  3.02                                                             
C  5.37  0.00 15.08                                                             
C  5.37  0.00 27.15                                                             
C  5.37  0.00 39.22                                                             
C  5.37  0.00 51.29                                                             
C  1.34  6.97  3.02                                                             
C  1.34  6.97 15.08                                                             
C  1.34  6.97 27.15                                                             
C  1.34  6.97 39.22                                                             
C  1.34  6.97 51.29                                                             
C  5.37  4.65  3.02                                                             
C  5.37  4.65 15.08                                                             
C  5.37  4.65 27.15                                                             
C  5.37  4.65 39.22                                                             
C  5.37  4.65 51.29                                                             
C  9.39  2.32  3.02                                                             
C  9.39  2.32 15.08                                                             
C  9.39  2.32 27.15                                                             
C  9.39  2.32 39.22                                                             
C  9.39  2.32 51.29                                                             
C 13.42  0.00  3.02                                                             
C 13.42  0.00 15.08                                                             
C 13.42  0.00 27.15                                                             
C 13.42  0.00 39.22                                                             
C 13.42  0.00 51.29                                                             
C  1.34 11.62  3.02                                                             
C  1.34 11.62 15.08                                                             
C  1.34 11.62 27.15                                                             
C  1.34 11.62 39.22                                                             
C  1.34 11.62 51.29                                                             
C  5.37  9.30  3.02                                                             
C  5.37  9.30 15.08                                                             
C  5.37  9.30 27.15                                                             
C  5.37  9.30 39.22                                                             
C  5.37  9.30 51.29                                                             
C  9.39  6.97  3.02                                                             
C  9.39  6.97 15.08                                                             
C  9.39  6.97 27.15                                                             
C  9.39  6.97 39.22                                                             
C  9.39  6.97 51.29                                                             
C 13.42  4.65  3.02                                                             
C 13.42  4.65 15.08                                                             
C 13.42  4.65 27.15                                                             
C 13.42  4.65 39.22                                                             
C 13.42  4.65 51.29                                                             
C 17.45  2.32  3.02                                                             
C 17.45  2.32 15.08                                                             
C 17.45  2.32 27.15                                                             
C 17.45  2.32 39.22                                                             
C 17.45  2.32 51.29                                                             
C 21.47  0.00  3.02                                                             
C 21.47  0.00 15.08                                                             
C 21.47  0.00 27.15                                                             
C 21.47  0.00 39.22                                                             
C 21.47  0.00 51.29                                                             
C  1.34 16.27  3.02                                                             
C  1.34 16.27 15.08                                                             
C  1.34 16.27 27.15                                                             
C  1.34 16.27 39.22                                                             
C  1.34 16.27 51.29                                                             
C  5.37 13.95  3.02                                                             
C  5.37 13.95 15.08                                                             
C  5.37 13.95 27.15                                                             
C  5.37 13.95 39.22                                                             
C  5.37 13.95 51.29                                                             
C  9.39 11.62  3.02                                                             
C  9.39 11.62 15.08                                                             
C  9.39 11.62 27.15                                                             
C  9.39 11.62 39.22                                                             
C  9.39 11.62 51.29                                                             
C 13.42  9.30  3.02                                                             
C 13.42  9.30 15.08                                                             
C 13.42  9.30 27.15                                                             
C 13.42  9.30 39.22                                                             
C 13.42  9.30 51.29                                                             
C 17.45  6.97  3.02                                                             
C 17.45  6.97 15.08                                                             
C 17.45  6.97 27.15                                                             
C 17.45  6.97 39.22                                                             
C 17.45  6.97 51.29                                                             
C 21.47  4.65  3.02                                                             
C 21.47  4.65 15.08                                                             
C 21.47  4.65 27.15                                                             
C 21.47  4.65 39.22                                                             
C 21.47  4.65 51.29                                                             
C 25.50  2.32  3.02                                                             
C 25.50  2.32 15.08                                                             
C 25.50  2.32 27.15                                                             
C 25.50  2.32 39.22                                                             
C 25.50  2.32 51.29                                                             
C 29.52  0.00  3.02                                                             
C 29.52  0.00 15.08                                                             
C 29.52  0.00 27.15                                                             
C 29.52  0.00 39.22                                                             
C 29.52  0.00 51.29                                                             
C  9.39 16.27  3.02                                                             
C  9.39 16.27 15.08                                                             
C  9.39 16.27 27.15                                                             
C  9.39 16.27 39.22                                                             
C  9.39 16.27 51.29                                                             
C 13.42 13.95  3.02                                                             
C 13.42 13.95 15.08                                                             
C 13.42 13.95 27.15                                                             
C 13.42 13.95 39.22                                                             
C 13.42 13.95 51.29                                                             
C 17.45 11.62  3.02                                                             
C 17.45 11.62 15.08                                                             
C 17.45 11.62 27.15                                                             
C 17.45 11.62 39.22                                                             
C 17.45 11.62 51.29                                                             
C 21.47  9.30  3.02                                                             
C 21.47  9.30 15.08                                                             
C 21.47  9.30 27.15                                                             
C 21.47  9.30 39.22                                                             
C 21.47  9.30 51.29                                                             
C 25.50  6.97  3.02                                                             
C 25.50  6.97 15.08                                                             
C 25.50  6.97 27.15                                                             
C 25.50  6.97 39.22                                                             
C 25.50  6.97 51.29                                                             
C 29.52  4.65  3.02                                                             
C 29.52  4.65 15.08                                                             
C 29.52  4.65 27.15                                                             
C 29.52  4.65 39.22                                                             
C 29.52  4.65 51.29                                                             
C 17.45 16.27  3.02                                                             
C 17.45 16.27 15.08                                                             
C 17.45 16.27 27.15                                                             
C 17.45 16.27 39.22                                                             
C 17.45 16.27 51.29                                                             
C 21.47 13.95  3.02                                                             
C 21.47 13.95 15.08                                                             
C 21.47 13.95 27.15                                                             
C 21.47 13.95 39.22                                                             
C 21.47 13.95 51.29                                                             
C 25.50 11.62  3.02                                                             
C 25.50 11.62 15.08                                                             
C 25.50 11.62 27.15                                                             
C 25.50 11.62 39.22                                                             
C 25.50 11.62 51.29                                                             
C 29.52  9.30  3.02                                                             
C 29.52  9.30 15.08                                                             
C 29.52  9.30 27.15                                                             
C 29.52  9.30 39.22                                                             
C 29.52  9.30 51.29                                                             
C 25.50 16.27  3.02                                                             
C 25.50 16.27 15.08                                                             
C 25.50 16.27 27.15                                                             
C 25.50 16.27 39.22                                                             
C 25.50 16.27 51.29                                                             
C 29.52 13.95  3.02                                                             
C 29.52 13.95 15.08                                                             
C 29.52 13.95 27.15                                                             
C 29.52 13.95 39.22                                                             
C 29.52 13.95 51.29                                                             
C  2.68  0.00  9.05                                                             
C  2.68  0.00 21.12                                                             
C  2.68  0.00 33.19                                                             
C  2.68  0.00 45.25                                                             
C  2.68  0.00 57.32                                                             
C  2.68  4.65  9.05                                                             
C  2.68  4.65 21.12                                                             
C  2.68  4.65 33.19                                                             
C  2.68  4.65 45.25                                                             
C  2.68  4.65 57.32                                                             
C  6.71  2.32  9.05                                                             
C  6.71  2.32 21.12                                                             
C  6.71  2.32 33.19                                                             
C  6.71  2.32 45.25                                                             
C  6.71  2.32 57.32                                                             
C 10.74  0.00  9.05                                                             
C 10.74  0.00 21.12                                                             
C 10.74  0.00 33.19                                                             
C 10.74  0.00 45.25                                                             
C 10.74  0.00 57.32                                                             
C  2.68  9.30  9.05                                                             
C  2.68  9.30 21.12                                                             
C  2.68  9.30 33.19                                                             
C  2.68  9.30 45.25                                                             
C  2.68  9.30 57.32                                                             
C  6.71  6.97  9.05                                                             
C  6.71  6.97 21.12                                                             
C  6.71  6.97 33.19                                                             
C  6.71  6.97 45.25                                                             
C  6.71  6.97 57.32                                                             
C 10.74  4.65  9.05                                                             
C 10.74  4.65 21.12                                                             
C 10.74  4.65 33.19                                                             
C 10.74  4.65 45.25                                                             
C 10.74  4.65 57.32                                                             
C 14.76  2.32  9.05                                                             
C 14.76  2.32 21.12                                                             
C 14.76  2.32 33.19                                                             
C 14.76  2.32 45.25                                                             
C 14.76  2.32 57.32                                                             
C 18.79  0.00  9.05                                                             
C 18.79  0.00 21.12                                                             
C 18.79  0.00 33.19                                                             
C 18.79  0.00 45.25                                                             
C 18.79  0.00 57.32                                                             
C  2.68 13.95  9.05                                                             
C  2.68 13.95 21.12                                                             
C  2.68 13.95 33.19                                                             
C  2.68 13.95 45.25                                                             
C  2.68 13.95 57.32                                                             
C  6.71 11.62  9.05                                                             
C  6.71 11.62 21.12                                                             
C  6.71 11.62 33.19                                                             
C  6.71 11.62 45.25                                                             
C  6.71 11.62 57.32                                                             
C 10.74  9.30  9.05                                                             
C 10.74  9.30 21.12                                                             
C 10.74  9.30 33.19                                                             
C 10.74  9.30 45.25                                                             
C 10.74  9.30 57.32                                                             
C 14.76  6.97  9.05                                                             
C 14.76  6.97 21.12                                                             
C 14.76  6.97 33.19                                                             
C 14.76  6.97 45.25                                                             
C 14.76  6.97 57.32                                                             
C 18.79  4.65  9.05                                                             
C 18.79  4.65 21.12                                                             
C 18.79  4.65 33.19                                                             
C 18.79  4.65 45.25                                                             
C 18.79  4.65 57.32                                                             
C 22.81  2.32  9.05                                                             
C 22.81  2.32 21.12                                                             
C 22.81  2.32 33.19                                                             
C 22.81  2.32 45.25                                                             
C 22.81  2.32 57.32                                                             
C 26.84  0.00  9.05                                                             
C 26.84  0.00 21.12                                                             
C 26.84  0.00 33.19                                                             
C 26.84  0.00 45.25                                                             
C 26.84  0.00 57.32                                                             
C  6.71 16.27  9.05                                                             
C  6.71 16.27 21.12                                                             
C  6.71 16.27 33.19                                                             
C  6.71 16.27 45.25                                                             
C  6.71 16.27 57.32                                                             
C 10.74 13.95  9.05                                                             
C 10.74 13.95 21.12                                                             
C 10.74 13.95 33.19                                                             
C 10.74 13.95 45.25                                                             
C 10.74 13.95 57.32                                                             
C 14.76 11.62  9.05                                                             
C 14.76 11.62 21.12                                                             
C 14.76 11.62 33.19                                                             
C 14.76 11.62 45.25                                                             
C 14.76 11.62 57.32                                                             
C 18.79  9.30  9.05                                                             
C 18.79  9.30 21.12                                                             
C 18.79  9.30 33.19                                                             
C 18.79  9.30 45.25                                                             
C 18.79  9.30 57.32                                                             
C 22.81  6.97  9.05                                                             
C 22.81  6.97 21.12                                                             
C 22.81  6.97 33.19                                                             
C 22.81  6.97 45.25                                                             
C 22.81  6.97 57.32                                                             
C 26.84  4.65  9.05                                                             
C 26.84  4.65 21.12                                                             
C 26.84  4.65 33.19                                                             
C 26.84  4.65 45.25                                                             
C 26.84  4.65 57.32                                                             
C 30.86  2.32  9.05                                                             
C 30.86  2.32 21.12                                                             
C 30.86  2.32 33.19                                                             
C 30.86  2.32 45.25                                                             
C 30.86  2.32 57.32                                                             
C 14.76 16.27  9.05                                                             
C 14.76 16.27 21.12                                                             
C 14.76 16.27 33.19                                                             
C 14.76 16.27 45.25                                                             
C 14.76 16.27 57.32                                                             
C 18.79 13.95  9.05                                                             
C 18.79 13.95 21.12                                                             
C 18.79 13.95 33.19                                                             
C 18.79 13.95 45.25                                                             
C 18.79 13.95 57.32                                                             
C 22.81 11.62  9.05                                                             
C 22.81 11.62 21.12                                                             
C 22.81 11.62 33.19                                                             
C 22.81 11.62 45.25                                                             
C 22.81 11.62 57.32                                                             
C 26.84  9.30  9.05                                                             
C 26.84  9.30 21.12                                                             
C 26.84  9.30 33.19                                                             
C 26.84  9.30 45.25                                                             
C 26.84  9.30 57.32                                                             
C 30.86  6.97  9.05                                                             
C 30.86  6.97 21.12                                                             
C 30.86  6.97 33.19                                                             
C 30.86  6.97 45.25                                                             
C 30.86  6.97 57.32                                                             
C 22.81 16.27  9.05                                                             
C 22.81 16.27 21.12                                                             
C 22.81 16.27 33.19                                                             
C 22.81 16.27 45.25                                                             
C 22.81 16.27 57.32                                                             
C 26.84 13.95  9.05                                                             
C 26.84 13.95 21.12                                                             
C 26.84 13.95 33.19                                                             
C 26.84 13.95 45.25                                                             
C 26.84 13.95 57.32                                                             
C 30.86 11.62  9.05                                                             
C 30.86 11.62 21.12                                                             
C 30.86 11.62 33.19                                                             
C 30.86 11.62 45.25                                                             
C 30.86 11.62 57.32                                                             
C 30.86 16.27  9.05                                                             
C 30.86 16.27 21.12                                                             
C 30.86 16.27 33.19                                                             
C 30.86 16.27 45.25                                                             
C 30.86 16.27 57.32                                                             
%ENDBLOCK POSITIONS_ABS                                                         

--------------------------------------------------------------------------------
-------------------------------- END INPUT FILE --------------------------------
--------------------------------------------------------------------------------


 
<<<<<<<<<<<<<<<<<<<<<<<<<<<<<<<<< Full system >>>>>>>>>>>>>>>>>>>>>>>>>>>>>>>>>>
<<<<<<<<<<<<<<<<<<<<<<<<<<< PAW Dataset information >>>>>>>>>>>>>>>>>>>>>>>>>>>
File: ~/pp/paw/c_pbe_abinit.paw; rc = 1.25 bohr; shape type =  3; rshape = 1.25 bohr;
  Atomic number:  6;  ionic charge:  4.000000
    Partial Wave 1: l = 0
    Partial Wave 2: l = 0
    Partial Wave 3: l = 1
    Partial Wave 4: l = 1
  Core charge supplied for Nonlinear Core Corrections
<<<<<<<<<<<<<<<<<<<<<<<<<<<<<<<<<<<<<<< >>>>>>>>>>>>>>>>>>>>>>>>>>>>>>>>>>>>>>>

-------------------------- Atom counting information ---------------------------
Symbol    Natoms    Nngwfs    Nprojs
  C        640      2560      5120
.......   ......    ......    ......
Totals:    640      2560      5120
--------------------------------------------------------------------------------

=============================== PSINC grid sizes ===============================
                      Simulation cell:   63 x  35 x 119
                              FFT-box:   63 x  35 x 117
                                  PPD:    7 x   5 x   1
Grid space d1=  0.511269841270a0 (KE cutoff=  29.06054Eh = 790.77748eV)
Grid space d2=  0.531142857143a0 (KE cutoff=  26.92659Eh = 732.70972eV)
Grid space d3=  0.507058823529a0 (KE cutoff=  29.54523Eh = 803.96650eV)
================================================================================
  
WARNING in cell_grid_distribute:
Average of less than one 23-slab per node, so workload cannot be
equally balanced between nodes.

********************* Fourier parallelisation information **********************
       Coarse grid (whole simulation cell) dimensions:     63    35   119
          Real-space ('12') slabs/node (min max mean):      2     3     2
         Recip-space ('23') slabs/node (min max mean):      0     1     0
********************************************************************************

********************* Fourier parallelisation information **********************
       Double grid (whole simulation cell) dimensions:    126    70   238
          Real-space ('12') slabs/node (min max mean):      5     6     5
         Recip-space ('23') slabs/node (min max mean):      1     2     1
********************************************************************************

Atom SCF Calculation for C  : Z (AE atom) =   6 : Z (PS atom) =   4
Config String: 2s2 2p2
Orbitals (num,occ):  2     2.00 2.00
Orbitals   (num,l):  2        0    1
Real-space Grid (nr,dr,rmax): 1293    0.0069659443    9.0000000000
Spherical Bessel Basis (nsws,lmax,cutoff):   37    2  161.4736382572
Confining potential (l,width,scale):  0    3.0000000000  100.0000000000
Confining potential (l,width,scale):  1    3.0000000000  100.0000000000
  1         -5.4468762137   -1.3311033486    4.5135257941   -1.6400141247
  2         -5.4563922850   -1.3925089082    4.4492606193   -1.6178955363
  3         -5.4591606672   -1.4162756486    4.4239316220   -1.6104942496
  4         -5.4639338613   -1.4240698331    4.4156521757   -1.6083566999
  5         -5.4657436445   -1.4272842389    4.4122438165   -1.6075116305
  6         -5.4665049591   -1.4285796230    4.4108740217   -1.6071800157
  7         -5.4668137280   -1.4291083664    4.4103163978   -1.6070462938
  8         -5.4669397753   -1.4293243321    4.4100892688   -1.6069921003
  9         -5.4669910134   -1.4294128082    4.4099964732   -1.6069700140
 10         -5.4670118707   -1.4294491026    4.4099585094   -1.6069609935
 11         -5.4670203648   -1.4294640137    4.4099429536   -1.6069573023
 12         -5.4670238269   -1.4294701480    4.4099365706   -1.6069557895
 13         -5.4670252393   -1.4294726750    4.4099339478   -1.6069551687
 14         -5.4670258160   -1.4294737172    4.4099328686   -1.6069549136
 15         -5.4670260518   -1.4294741476    4.4099324241   -1.6069548086
 16         -5.4670261483   -1.4294743256    4.4099322407   -1.6069547654
Atom SCF converged after  16 iterations to a total energy of     -5.46702615

Determining parallel strategy ...
... using space-filling curve
... NGWF load balancing: max     64;  min     64;  average     64
... Projector load balancing: max    128;  min    128;  average    128
... done
Calculating Ewald energy ...
              Ewald: real-space energy =    9529.001465
        Ewald: reciprocal-space energy =       0.042581
         Ewald: (sum_charge)**2 Energy =   11501.773302
         Ewald: (sum_charge**2) Energy =     909.295019
                          Ewald Energy =   -2882.024275
Basis initialisation ...... NGWF spheres initialised
... Projector spheres initialised
... NGWF tight boxes initialised
... Projector tight boxes initialised
... Tight-boxes gathered
... NGWF basis size (local,global):     692852  27896992
... PAW projector initialisation
... done

============================= Charge Augmentation ==============================
                           Aug box size:   11 x  11 x  11
================================================================================

========================== Sparse matrix information ===========================
                        Overlap matrix filling:  44.38%
                        Density kernel filling: 100.00%
              NGWF-Proj overlap matrix filling:  13.12%
                    Aug Overlap matrix filling:  47.81%
                    Hamiltonian matrix filling:  47.81%
                  NGWF diagonal matrix filling:   0.16%
                             KS matrix filling: 100.00% 
                           KSKS matrix filling: 100.00% 
================================================================================

Sparse matrix initialisation ... done
NGWF initialisation ...... done
============ Calculation of NGWF S^-1 using Hotelling algorithm ================ 
         Iteration  |  Frobenius norm and Maximum abs value    (of I-S*S_n^-1)   
               1       0.49223260E+02     0.97809443E+00
               2       0.48105310E+02     0.95796450E+00
               3       0.46391808E+02     0.92206421E+00
               4       0.44115586E+02     0.86296758E+00
               5       0.41350790E+02     0.77471377E+00
               6       0.38078710E+02     0.68926524E+00
               7       0.34567149E+02     0.63910660E+00
               8       0.31206614E+02     0.59775088E+00
               9       0.27750630E+02     0.55631526E+00
              10       0.23488399E+02     0.49427975E+00
              11       0.17907472E+02     0.39381485E+00
              12       0.11233459E+02     0.25463302E+00
              13       0.50004768E+01     0.11229437E+00
              14       0.11792098E+01     0.24642862E-01
              15       0.77891848E-01     0.14386001E-02
              16       0.41969817E-03     0.61821399E-05
              17       0.17915555E-07     0.16736468E-09
              18       0.82468583E-13     0.48849813E-14
================================================================================
Calculating core density ...
================================= Core Density =================================
               Core den box size:   21 x  21 x  21
================================================================================
 ... done
Up spin density kernel initialisation ...... done

Writing density kernel to file "3.1930128_GO_manual_4x64graphite.dkn" ... done

>>> Optimising kernel for current NGWFs:

--------------------------- Ensemble-DFT optimisation --------------------------
Running ScaLAPACK on   40 processor(s).

--------------------------------------------------------------------------------
  Iter                              Commutator    Free_energy(A=E-TS)     DeltaA
#    0                          0.000048306092   -3653.71585753302998  -3.65E+03

Step                       =       0.381966011250
Energy                     =   -3653.715816849834
Entropy (-TS)              =      -0.000040683647
Free energy (A=E-TS)       =   -3653.715857533030
Est. 0K Energy 0.5*(E+A)   =   -3653.715837191432
Residual Non-orthogonality =       0.000000000000
Residual N_electrons       =       0.000000000452

Spin          Integrated_Ne            Fermi_level     Delta_Fermi_level
   1      2559.999999998077         0.234866819544              2.35E-01

                           Spin 1          
     Orb      H-eigenvalues     Occupancies
       1 |    -0.4878840738    1.0000000000 | 
                          ------
    1276 |     0.2020900432    0.9999680110 | 
    1277 |     0.2026790841    0.9999614719 | 
    1278 |     0.2027003309    0.9999612125 | 
    1279 |     0.2031014307    0.9999559754 | 
    1280 |     0.2036988944    0.9999468348 | 
                 - Gap at zero temperature -
    1281 |     0.2683910951    0.0000252634 | 
    1282 |     0.2683973322    0.0000252137 | 
    1283 |     0.2685122903    0.0000243148 | 
    1284 |     0.2686208179    0.0000234957 | 
    1285 |     0.2686270918    0.0000234492 | 
                          ------
    2560 |     1.0651082899    0.0000000000 | 

                       |  Abs_value |  Threshold | Converged
     Delta_Free_energy |   3.65E+03 |   1.00E-06 |        No
     Delta_Energy      |   3.65E+03 |   1.00E-04 |        No
     Delta_Entropy     |   4.07E-05 |   1.00E-04 |       Yes
     Commutator        |   4.83E-05 |   1.00E-05 |        No
     Delta_Fermi_level |   2.35E-01 |   1.00E-03 |        No

  Line search of the free energy minimum:
  Step_type        Step             Free_energy   Predicted_free_energy
.   Initial    0.000000    -3653.71585753302998
.    Trial1    0.381966    -3653.71820556522789
.    Trial2    0.618034    -3653.71791297144955
. Quadratic    0.448148    -3653.71825722882113    -3653.71825791596120

--------------------------------------------------------------------------------
  Iter                              Commutator    Free_energy(A=E-TS)     DeltaA
#    1                          0.000022796707   -3653.71825722882113  -2.40E-03

Step                       =       0.448148494949
Energy                     =   -3653.718217426012
Entropy (-TS)              =      -0.000039802233
Free energy (A=E-TS)       =   -3653.718257228821
Est. 0K Energy 0.5*(E+A)   =   -3653.718237327416
Residual Non-orthogonality =       0.000000000000
Residual N_electrons       =      -0.000000000577

Spin          Integrated_Ne            Fermi_level     Delta_Fermi_level
   1      2560.000000002434         0.236933168684              2.07E-03

                           Spin 1          
     Orb      H-eigenvalues     Occupancies
       1 |    -0.4868168799    1.0000000000 | 
                          ------
    1276 |     0.2041441388    0.9999681346 | 
    1277 |     0.2046265567    0.9999628913 | 
    1278 |     0.2046327672    0.9999628184 | 
    1279 |     0.2051864180    0.9999557155 | 
    1280 |     0.2056626466    0.9999485295 | 
                 - Gap at zero temperature -
    1281 |     0.2705183776    0.0000247819 | 
    1282 |     0.2705361681    0.0000246431 | 
    1283 |     0.2706681527    0.0000236372 | 
    1284 |     0.2707911078    0.0000227371 | 
    1285 |     0.2708439251    0.0000223610 | 
                          ------
    2560 |     1.0685109099    0.0000000000 | 

                       |  Abs_value |  Threshold | Converged
     Delta_Free_energy |   2.40E-03 |   1.00E-06 |        No
     Delta_Energy      |   2.40E-03 |   1.00E-04 |        No
     Delta_Entropy     |   8.81E-07 |   1.00E-04 |       Yes
     Commutator        |   2.28E-05 |   1.00E-05 |        No
     Delta_Fermi_level |   2.07E-03 |   1.00E-03 |        No

  Line search of the free energy minimum:
  Step_type        Step             Free_energy   Predicted_free_energy
.   Initial    0.000000    -3653.71825722882113
.    Trial1    0.448148    -3653.71861343890987
.    Trial2    0.658937    -3653.71812180153483
. Quadratic    0.307816    -3653.71870749022492    -3653.71870690069500

--------------------------------------------------------------------------------
  Iter                              Commutator    Free_energy(A=E-TS)     DeltaA
#    2                          0.000015365599   -3653.71870749022492  -4.50E-04

Step                       =       0.307815529926
Energy                     =   -3653.718668169789
Entropy (-TS)              =      -0.000039319960
Free energy (A=E-TS)       =   -3653.718707490225
Est. 0K Energy 0.5*(E+A)   =   -3653.718687830007
Residual Non-orthogonality =       0.000000000000
Residual N_electrons       =      -0.000000000476

Spin          Integrated_Ne            Fermi_level     Delta_Fermi_level
   1      2560.000000002005         0.237660793031              7.28E-04

                           Spin 1          
     Orb      H-eigenvalues     Occupancies
       1 |    -0.4864207203    1.0000000000 | 
                          ------
    1276 |     0.2048140901    0.9999687096 | 
    1277 |     0.2053277002    0.9999632003 | 
    1278 |     0.2053348072    0.9999631176 | 
    1279 |     0.2058494868    0.9999566091 | 
    1280 |     0.2063575803    0.9999490581 | 
                 - Gap at zero temperature -
    1281 |     0.2712903750    0.0000244371 | 
    1282 |     0.2713096262    0.0000242890 | 
    1283 |     0.2714404982    0.0000233057 | 
    1284 |     0.2715742269    0.0000223421 | 
    1285 |     0.2716051675    0.0000221249 | 
                          ------
    2560 |     1.0697831942    0.0000000000 | 

                       |  Abs_value |  Threshold | Converged
     Delta_Free_energy |   4.50E-04 |   1.00E-06 |        No
     Delta_Energy      |   4.51E-04 |   1.00E-04 |        No
     Delta_Entropy     |   4.82E-07 |   1.00E-04 |       Yes
     Commutator        |   1.54E-05 |   1.00E-05 |        No
     Delta_Fermi_level |   7.28E-04 |   1.00E-03 |       Yes

  Line search of the free energy minimum:
  Step_type        Step             Free_energy   Predicted_free_energy
.   Initial    0.000000    -3653.71870749022492
.    Trial1    0.307816    -3653.71888433991126
.    Trial2    0.572206    -3653.71863829186805
. Quadratic    0.263116    -3653.71888964647951    -3653.71888959563012

--------------------------------------------------------------------------------
  Iter                              Commutator    Free_energy(A=E-TS)     DeltaA
#    3                          0.000010713584   -3653.71888964647951  -1.82E-04

Step                       =       0.263116092104
Energy                     =   -3653.718850594036
Entropy (-TS)              =      -0.000039052947
Free energy (A=E-TS)       =   -3653.718889646480
Est. 0K Energy 0.5*(E+A)   =   -3653.718870120258
Residual Non-orthogonality =       0.000000000000
Residual N_electrons       =       0.000000000503

Spin          Integrated_Ne            Fermi_level     Delta_Fermi_level
   1      2559.999999997888         0.238095510545              4.35E-04

                           Spin 1          
     Orb      H-eigenvalues     Occupancies
       1 |    -0.4861811664    1.0000000000 | 
                          ------
    1276 |     0.2052240592    0.9999689532 | 
    1277 |     0.2057413818    0.9999634439 | 
    1278 |     0.2057486725    0.9999633597 | 
    1279 |     0.2062581274    0.9999569649 | 
    1280 |     0.2067700930    0.9999494140 | 
                 - Gap at zero temperature -
    1281 |     0.2717473570    0.0000242659 | 
    1282 |     0.2717666270    0.0000241187 | 
    1283 |     0.2718994582    0.0000231280 | 
    1284 |     0.2720320347    0.0000221798 | 
    1285 |     0.2720599833    0.0000219849 | 
                          ------
    2560 |     1.0705458930    0.0000000000 | 

                       |  Abs_value |  Threshold | Converged
     Delta_Free_energy |   1.82E-04 |   1.00E-06 |        No
     Delta_Energy      |   1.82E-04 |   1.00E-04 |        No
     Delta_Entropy     |   2.67E-07 |   1.00E-04 |       Yes
     Commutator        |   1.07E-05 |   1.00E-05 |        No
     Delta_Fermi_level |   4.35E-04 |   1.00E-03 |       Yes

  Line search of the free energy minimum:
  Step_type        Step             Free_energy   Predicted_free_energy
.   Initial    0.000000    -3653.71888964647951
.    Trial1    0.263116    -3653.71897713003182
.    Trial2    0.544581    -3653.71890227643871
. Quadratic    0.282843    -3653.71897755191048    -3653.71897755765940

--------------------------------------------------------------------------------
  Iter                              Commutator    Free_energy(A=E-TS)     DeltaA
#    4                          0.000007933126   -3653.71897755191048  -8.79E-05

Step                       =       0.282842866505
Energy                     =   -3653.718938704986
Entropy (-TS)              =      -0.000038846817
Free energy (A=E-TS)       =   -3653.718977551910
Est. 0K Energy 0.5*(E+A)   =   -3653.718958128448
Residual Non-orthogonality =       0.000000000000
Residual N_electrons       =      -0.000000000108

Spin          Integrated_Ne            Fermi_level     Delta_Fermi_level
   1      2560.000000000453         0.238438776341              3.43E-04

                           Spin 1          
[...]
 C   160 -- C   385       -0.09      5.37000
 C   159 -- C   384       -0.09      5.37000
 C   158 -- C   383       -0.09      5.37000
 C   157 -- C   382       -0.09      5.37000
 C   156 -- C   381       -0.09      5.37000
 C   155 -- C   355       -0.09      5.37000
 C   154 -- C   354       -0.09      5.37000
 C   153 -- C   353       -0.09      5.37000
 C   152 -- C   352       -0.09      5.37000
 C   151 -- C   351       -0.09      5.37000
 C   140 -- C   335       -0.09      5.37000
 C   139 -- C   334       -0.09      5.37000
 C   138 -- C   333       -0.09      5.37000
 C   137 -- C   332       -0.09      5.37000
 C   136 -- C   331       -0.09      5.37000
 C   115 -- C   325       -0.09      5.37000
 C   114 -- C   324       -0.09      5.37000
 C   113 -- C   323       -0.09      5.37000
 C   112 -- C   322       -0.09      5.37000
 C   111 -- C   321       -0.09      5.37000
 C   219 -- C   569       -0.09      5.37202
 C   218 -- C   568       -0.09      5.37202
 C   217 -- C   567       -0.09      5.37202
 C   216 -- C   566       -0.09      5.37202
 C   285 -- C   580       -0.09      5.37202
 C   284 -- C   579       -0.09      5.37202
 C   283 -- C   578       -0.09      5.37202
 C   282 -- C   577       -0.09      5.37202
 C   281 -- C   576       -0.09      5.37202
 C   260 -- C   605       -0.09      5.37202
 C   259 -- C   604       -0.09      5.37202
 C   258 -- C   603       -0.09      5.37202
 C   257 -- C   602       -0.09      5.37202
 C   256 -- C   601       -0.09      5.37202
 C   250 -- C   540       -0.09      5.37202
 C   249 -- C   539       -0.09      5.37202
 C   248 -- C   538       -0.09      5.37202
 C   247 -- C   537       -0.09      5.37202
 C   246 -- C   536       -0.09      5.37202
 C   220 -- C   570       -0.09      5.37202
 C   220 -- C   515       -0.09      5.37202
 C   219 -- C   514       -0.09      5.37202
 C   218 -- C   513       -0.09      5.37202
 C   217 -- C   512       -0.09      5.37202
 C   216 -- C   511       -0.09      5.37202
 C    95 -- C   425       -0.09      5.37202
 C    94 -- C   424       -0.09      5.37202
 C    93 -- C   423       -0.09      5.37202
 C   195 -- C   540       -0.09      5.37202
 C   195 -- C   500       -0.09      5.37202
 C   194 -- C   539       -0.09      5.37202
 C    92 -- C   422       -0.09      5.37202
 C   194 -- C   499       -0.09      5.37202
 C   193 -- C   538       -0.09      5.37202
 C   193 -- C   498       -0.09      5.37202
 C   192 -- C   537       -0.09      5.37202
 C    91 -- C   421       -0.09      5.37202
 C   192 -- C   497       -0.09      5.37202
 C   191 -- C   536       -0.09      5.37202
 C   191 -- C   496       -0.09      5.37202
 C    85 -- C   355       -0.09      5.37202
 C   180 -- C   515       -0.09      5.37202
 C    84 -- C   354       -0.09      5.37202
 C   179 -- C   514       -0.09      5.37202
 C    83 -- C   353       -0.09      5.37202
 C   178 -- C   513       -0.09      5.37202
 C   177 -- C   512       -0.09      5.37202
 C    82 -- C   352       -0.09      5.37202
 C   176 -- C   511       -0.09      5.37202
 C    81 -- C   351       -0.09      5.37202
 C   120 -- C   395       -0.09      5.37202
 C    55 -- C   385       -0.09      5.37202
 C   119 -- C   394       -0.09      5.37202
 C   118 -- C   393       -0.09      5.37202
 C   117 -- C   392       -0.09      5.37202
 C    54 -- C   384       -0.09      5.37202
 C   116 -- C   391       -0.09      5.37202
 C    53 -- C   383       -0.09      5.37202
 C    52 -- C   382       -0.09      5.37202
 C    51 -- C   381       -0.09      5.37202
 C   205 -- C   550       -0.09      5.37202
 C   204 -- C   549       -0.09      5.37202
 C   203 -- C   548       -0.09      5.37202
 C   202 -- C   547       -0.09      5.37202
 C   201 -- C   546       -0.09      5.37202
 C    95 -- C   365       -0.09      5.37202
 C    94 -- C   364       -0.09      5.37202
 C    93 -- C   363       -0.09      5.37202
 C    92 -- C   362       -0.09      5.37202
 C    91 -- C   361       -0.09      5.37202
 C    65 -- C   395       -0.09      5.37202
 C    64 -- C   394       -0.09      5.37202
 C    63 -- C   393       -0.09      5.37202
 C    30 -- C   355       -0.09      5.37202
 C    62 -- C   392       -0.09      5.37202
 C    61 -- C   391       -0.09      5.37202
 C    29 -- C   354       -0.09      5.37202
 C   260 -- C   550       -0.09      5.37202
 C   259 -- C   549       -0.09      5.37202
 C    28 -- C   353       -0.09      5.37202
 C   258 -- C   548       -0.09      5.37202
 C   257 -- C   547       -0.09      5.37202
 C   256 -- C   546       -0.09      5.37202
 C    27 -- C   352       -0.09      5.37202
 C    26 -- C   351       -0.09      5.37202
 C    55 -- C   335       -0.09      5.37202
 C    54 -- C   334       -0.09      5.37202
 C    53 -- C   333       -0.09      5.37202
 C   230 -- C   580       -0.09      5.37202
 C   230 -- C   525       -0.09      5.37202
 C   229 -- C   579       -0.09      5.37202
 C   229 -- C   524       -0.09      5.37202
 C   228 -- C   578       -0.09      5.37202
 C    52 -- C   332       -0.09      5.37202
 C   228 -- C   523       -0.09      5.37202
 C   227 -- C   577       -0.09      5.37202
 C   227 -- C   522       -0.09      5.37202
 C   226 -- C   576       -0.09      5.37202
 C   226 -- C   521       -0.09      5.37202
 C    51 -- C   331       -0.09      5.37202
 C    23 -- C   478       -0.09      5.37202
 C    49 -- C   469       -0.09      5.37202
 C    11 -- C   331       -0.09      5.37202
 C    48 -- C   468       -0.09      5.37202
 C    47 -- C   467       -0.09      5.37202
 C    22 -- C   477       -0.09      5.37202
 C    46 -- C   466       -0.09      5.37202
 C    21 -- C   476       -0.09      5.37202
 C    40 -- C   365       -0.09      5.37202
 C    39 -- C   364       -0.09      5.37202
 C    38 -- C   363       -0.09      5.37202
 C    37 -- C   362       -0.09      5.37202
 C    36 -- C   361       -0.09      5.37202
 C    15 -- C   335       -0.09      5.37202
 C    65 -- C   345       -0.09      5.37202
 C    64 -- C   344       -0.09      5.37202
 C    63 -- C   343       -0.09      5.37202
 C    30 -- C   325       -0.09      5.37202
 C    14 -- C   334       -0.09      5.37202
 C    62 -- C   342       -0.09      5.37202
 C    61 -- C   341       -0.09      5.37202
 C    29 -- C   324       -0.09      5.37202
 C    28 -- C   323       -0.09      5.37202
 C    13 -- C   333       -0.09      5.37202
 C    27 -- C   322       -0.09      5.37202
 C    26 -- C   321       -0.09      5.37202
 C    25 -- C   480       -0.09      5.37202
 C    12 -- C   332       -0.09      5.37202
 C    24 -- C   479       -0.09      5.37202
 C    50 -- C   470       -0.09      5.37202
 C    24 -- C   449       -0.09      5.37202
 C     6 -- C   416       -0.09      5.37202
 C    23 -- C   448       -0.09      5.37202
 C    22 -- C   447       -0.09      5.37202
 C    10 -- C   470       -0.09      5.37202
 C     5 -- C   450       -0.09      5.37202
 C    21 -- C   446       -0.09      5.37202
 C    10 -- C   420       -0.09      5.37202
 C     9 -- C   469       -0.09      5.37202
 C     9 -- C   419       -0.09      5.37202
 C     8 -- C   468       -0.09      5.37202
 C     4 -- C   449       -0.09      5.37202
 C   150 -- C   440       -0.09      5.37202
 C   149 -- C   439       -0.09      5.37202
 C   148 -- C   438       -0.09      5.37202
 C   147 -- C   437       -0.09      5.37202
 C     8 -- C   418       -0.09      5.37202
 C   146 -- C   436       -0.09      5.37202
 C     2 -- C   447       -0.09      5.37202
 C   135 -- C   460       -0.09      5.37202
 C     7 -- C   467       -0.09      5.37202
 C   134 -- C   459       -0.09      5.37202
 C   133 -- C   458       -0.09      5.37202
 C   132 -- C   457       -0.09      5.37202
 C   131 -- C   456       -0.09      5.37202
 C     7 -- C   417       -0.09      5.37202
 C     1 -- C   446       -0.09      5.37202
 C     6 -- C   466       -0.09      5.37202
 C    25 -- C   450       -0.09      5.37202
 C     3 -- C   448       -0.09      5.37202
 C   106 -- C   436       -0.09      5.37202
 C   106 -- C   376       -0.09      5.37202
 C    80 -- C   410       -0.09      5.37202
 C    79 -- C   409       -0.09      5.37202
 C    78 -- C   408       -0.09      5.37202
 C    77 -- C   407       -0.09      5.37202
 C    76 -- C   406       -0.09      5.37202
 C   135 -- C   410       -0.09      5.37202
 C   134 -- C   409       -0.09      5.37202
 C   133 -- C   408       -0.09      5.37202
 C   132 -- C   407       -0.09      5.37202
 C   131 -- C   406       -0.09      5.37202
 C   110 -- C   440       -0.09      5.37202
 C   110 -- C   380       -0.09      5.37202
 C   109 -- C   439       -0.09      5.37202
 C   109 -- C   379       -0.09      5.37202
 C   108 -- C   438       -0.09      5.37202
 C   108 -- C   378       -0.09      5.37202
 C   107 -- C   437       -0.09      5.37202
 C   107 -- C   377       -0.09      5.37202
 C   215 -- C   635       -0.09      5.38000
 C   214 -- C   634       -0.09      5.38000
 C   213 -- C   633       -0.09      5.38000
 C   212 -- C   632       -0.09      5.38000
 C   211 -- C   631       -0.09      5.38000
 C   190 -- C   620       -0.09      5.38000
 C   189 -- C   619       -0.09      5.38000
 C   188 -- C   618       -0.09      5.38000
 C   187 -- C   617       -0.09      5.38000
 C   186 -- C   616       -0.09      5.38000
 C   175 -- C   595       -0.09      5.38000
 C   174 -- C   594       -0.09      5.38000
 C   173 -- C   593       -0.09      5.38000
 C   172 -- C   592       -0.09      5.38000
 C   171 -- C   591       -0.09      5.38000
 C   245 -- C   640       -0.09      5.38000
 C   244 -- C   639       -0.09      5.38000
 C   243 -- C   638       -0.09      5.38000
 C   242 -- C   637       -0.09      5.38000
 C   241 -- C   636       -0.09      5.38000
==================================================


=================== Orbital energy and occupancy information ===================

      Total number of orbitals:    2560
        Occupancy sum (kernel):    1280.000000000
   Occupancy sum (eigenvalues):    1280.000000000
                 HOMO-LUMO gap:       0.062170076 Eh
                 Mid-gap level:       0.277993004 Eh

                        Orbital | Energy (Eh) | Occupancy
                            1    -0.448376522   1.0000000
                        .......   ...........   .........
                         1271     0.241576769   0.9999871
                         1272     0.241641571   0.9999868
                         1273     0.242045861   0.9999850
                         1274     0.242110548   0.9999847
                         1275     0.245973505   0.9999482
                         1276     0.245985831   0.9999480
                         1277     0.246412337   0.9999405
                         1278     0.246424623   0.9999403
                         1279     0.246487826   0.9999391
                         1280     0.246907966   0.9999304
                        ....... -- gap at 0K -- .........
                         1281     0.309078042   0.0000427
                         1282     0.309098724   0.0000424
                         1283     0.309331752   0.0000394
                         1284     0.309352256   0.0000392
                         1285     0.310236919   0.0000297
                         1286     0.310248448   0.0000296
                         1287     0.310509119   0.0000273
                         1288     0.310520650   0.0000272
                         1289     0.311002024   0.0000234
                         1290     0.311281397   0.0000214
                        .......   ...........   .........
                         2560     1.165254845   0.0000000

================================================================================

===================== Writing canonical molecular orbitals =====================
| Orbital  Energy (eV)  Norm     |
| HOMO      6.71870762  1.000000 | Writing "3.1930128_GO_manual_4x64graphite_HOMO.cube" ... done
Writing "3.1930128_GO_manual_4x64graphite_HOMO.dx" ... done
| LUMO      8.41044148  1.000000 | Writing "3.1930128_GO_manual_4x64graphite_LUMO.cube" ... done
Writing "3.1930128_GO_manual_4x64graphite_LUMO.dx" ... done
================================================================================
 
===================== Density of States (DOS) calculation ======================
Writing "3.1930128_GO_manual_4x64graphite_DOS.txt" ...  done
================================================================================
 
Writing bands to file "3.1930128_GO_manual_4x64graphite.val_bands" ... done
 
================ Projected Density of States (pDOS) calculation ================
 
Constructing AM resolved functions  ...... done
Writing NGWF plot files in formats: CUBE DX ...  done
 
Performing overlap integrals ...  done
 
Computing pDOS weights ...  done
 
All bands spilling parameter =   3.92 %
Occupancy-weighted spilling parameter =   0.82 %
 
 => Outputting data for OptaDOS <=
 
Writing pDOS weights to file "3.1930128_GO_manual_4x64graphite.val_pdos_bin" ... done
 
Writing band gradients to file "3.1930128_GO_manual_4x64graphite.val_dome_bin" ... done
 
Writing Castep output cell file to "3.1930128_GO_manual_4x64graphite-out.cell" ... done
 
 => Computing Gaussian smeared pDOS <= 
Writing "3.1930128_GO_manual_4x64graphite_PDOS.txt" ...  done
 
 => Computing Occupancy-weighted Gaussian smeared pDOS <= 
Writing "3.1930128_GO_manual_4x64graphite_occ_PDOS.txt" ...  done
  => Band centres: 
 S band centre of group 1:  -13.849422 eV
 P band centre of group 1:   -6.750786 eV
  Band centres done. <=
  => Integrated number of electrons in each AM band: 
 S num electrons of group 1:  574.509011
 P num electrons of group 1: 1964.486566
  Integrated number of electrons done. <=
================================================================================

------------------------------ TIMING INFORMATION ------------------------------
AVERAGE TIME:    4488.112s on     40 node(s)                                    
TOTAL TIME:      4488.112s on     40 node(s)                                    
================= AVERAGE TIMINGS FROM ALL NODES (CUMULATIVE) ==================
|| TAG                                    #calls    cpu time   %total  Gflops ||
|| work_imbalance                       :     1        0.00s   0.000%  ------ ||
|| paw_tcore_hartree_on_grid            :     1        0.01s   0.000%  ------ ||
|| paw_tcore_density                    :     1        0.01s   0.000%  ------ ||
|| paw_sphere_density_on_grid           :     1        0.01s   0.000%  ------ ||
|| sparse_set_to_garbage                :   183        0.03s   0.001%  ------ ||
|| pseudo_make_structure_factor         :     1        0.05s   0.001%  ------ ||
|| paw_dij_hartree                      :   408        0.05s   0.001%  ------ ||
|| basis_extract_function_from_box      :  2048        0.09s   0.002%  ------ ||
|| paw_species_calc_proj_prec_mat       :     1        0.12s   0.003%  ------ ||
|| paw_dataset_init                     :     1        0.15s   0.003%  ------ ||
|| density_init_guess_real              :     1        0.19s   0.004%  ------ ||
|| ngwfs_initialise_from_radial         :     2        0.67s   0.015%  ------ ||
|| sparse_init                          :     1        0.96s   0.021%  ------ ||
|| dense_normal_eigensolve              :     1        1.11s   0.025%  ------ ||
|| restart_kernel_write                 :    17        1.15s   0.026%  ------ ||
|| hartree_on_grid                      :   306        1.27s   0.028%  ------ ||
|| ewald_calculate_energy               :     1        2.29s   0.051%  ------ ||
|| projectors_init_fftbox_recip         :   161        3.11s   0.069%  ------ ||
|| fourier_apply_box_pair               :  3040        5.02s   0.112% 561.189 ||
|| basis_copy_function_to_box           : 28864        6.26s   0.139%  ------ ||
|| sw_init                              :     1        6.73s   0.150%  ------ ||
|| augmentation_screen_dij              :   313        6.95s   0.155%  ------ ||
|| sparse_embed_hotelling_invert_embed  :    31        9.55s   0.213%  ------ ||
|| ngwf_gradient_coeffs                 :    16       12.60s   0.281%  ------ ||
|| cell_grid_extract_box_real           : 12252       16.22s   0.361%  ------ ||
|| fourier_apply_cell_backward          :  9457       16.44s   0.366%  64.058 ||
|| fourier_apply_cell_forward           :  8846       17.52s   0.390%  56.249 ||
|| sparse_trace                         :  3710       20.42s   0.455%  ------ ||
|| cell_grid_deposit_box_real           : 39344       23.76s   0.529%  ------ ||
|| paw_dij_xc                           :   408       27.44s   0.611%  ------ ||
|| aug_nonlocal_mat                     :   392       41.74s   0.930%  ------ ||
|| density_fftbox_deposit_to_cell       : 19584       47.42s   1.057%  ------ ||
|| eigenstates_pdos                     :     1       53.57s   1.194%  ------ ||
|| augmentation_density_on_grid         :   306       56.66s   1.262%  ------ ||
|| eigenstates_calculate                :     1       57.61s   1.284%  ------ ||
|| function_ops_brappd_ketppd           :    64       63.91s   1.424%  ------ ||
|| hamiltonian_energy_components        :     4       66.79s   1.488%  ------ ||
|| nlxc_vdw_energy                      :   610       70.99s   1.582%  ------ ||
|| projectors_func_ovlp_box             :    32       76.74s   1.710%  ------ ||
|| xc_energy_potential                  :   305       82.94s   1.848%  ------ ||
|| properties_calculate                 :     1      102.02s   2.273%  ------ ||
|| integrals_kinetic                    :    31      114.51s   2.552%  ------ ||
|| dense_eigensolve                     :   270      127.53s   2.842%  ------ ||
|| restart_ngwfs_tightbox_output        :    15      141.85s   3.161%  ------ ||
|| potential_apply_to_ngwf_batch        :   388      150.68s   3.357%  ------ ||
|| sparse_product                       :  3689      160.64s   3.579%  ------ ||
|| basis_dot_function_with_box          : 9.556M     256.75s   5.721%  ------ ||
|| fourier_apply_box                    : 90496      281.81s   6.279% 980.882 ||
|| edft_diag_ngwf_ham                   :   269      292.49s   6.517%  ------ ||
|| projectors_gradient_batch            :    64      297.21s   6.622%  ------ ||
|| integrals_locpot_mat_els_batch       :   388      363.85s   8.107%  ------ ||
|| density_fftbox_interpolate_multiply  : 19584      379.65s   8.459%  ------ ||
|| projectors_grad_precond_batch        :    64      440.93s   9.824%  ------ ||
|| density_batch_interp_deposit         :  1224      472.66s  10.531%  ------ ||
|| integrals_locpot_dbl_grid            :    97      516.53s  11.509%  ------ ||
|| edft_apply_smearing_operator         :   269      578.41s  12.888%  ------ ||
|| basis_add_function_to_box            : 26.90M     689.45s  15.362%  ------ ||
|| ngwf_gradient_build_batch            :    64      786.37s  17.521%  ------ ||
|| density_batch_row_sums               :  1224     1021.24s  22.754%  ------ ||
|| ngwf_gradient_batch                  :    64     1045.52s  23.295%  ------ ||
|| ngwf_gradient_lnv                    :    16     1073.46s  23.918%  ------ ||
|| density_on_dbl_grid                  :   306     1509.34s  33.630%  ------ ||
|| hamiltonian_lhxc_calculate           :   300     1622.20s  36.144%  ------ ||
|| edft_calculate                       :    16     2703.63s  60.240%  ------ ||
|| ngwf_cg_optimise                     :     1     4360.77s  97.163%  ------ ||
|| total_time                           :     1     4488.11s 100.000%  ------ ||
================================================================================
Overhead of generating timer report: 
- 0 ms averaging over threads,
- 6 ms ensuring consistency across MPI ranks,
- 0 ms printing in order.

Job completed: 25-02-2020 12:11 (-0000)

