 +---------------------------------------------------------------+
 |                                                               |
 |        ####### #     # ####### ####### ####### ######         |
 |        #     # ##    # #          #    #       #     #        |
 |        #     # # #   # #          #    #       #     #        |
 |        #     # #  #  # #####      #    #####   ######         |
 |        #     # #   # # #          #    #       #              |
 |        #     # #    ## #          #    #       #              |
 |        ####### #     # #######    #    ####### #              |
 |                                                               |
 |        Linear-Scaling Ab Initio Total Energy Program          |
 |                                                               |
 |          Release for academic collaborators of ODG            |
 |                                             Version 5.3.2.12  |
 |                                                               |
 +---------------------------------------------------------------+
 |                                                               |
 |  Authors:                                                     |
 |  Jacek Dziedzic, Peter D. Haynes, Nicholas D. M. Hine,        |
 |  Arash. A. Mostofi, Mike C. Payne and Chris-Kriton Skylaris   |
 |                                                               |
 |  Contributors:                                                |
 |  J. Aarons, L. Andrinopoulos, P. W. Avraam, R. A. Bell,       |
 |  A. Bhandari, G. A. Bramley, R. J. Charlton, S. J. Clark,     |
 |  R. J. Clements, G. C. Constantinescu, F. Corsetti,           |
 |  N. Corsini, O. Dieguez, S. M. M. Dubois, K. K. B. Duff,      |
 |  J. M. Escartin, A. Greco, H. Helal, Q. O. Hill, L. P. Lee,   |
 |  J.-H. Li, E. B. Linscott, G. Moynihan, D. D. O`Regan,        |
 |  O. K. Okan, M. J. S. Phipps, C. J. Pickard,                  |
 |  J. C. A. Prentice, M. I. J. Probert, L. E. Ratcliff,         |
 |  M. Robinson, A. Ruiz Serrano, J. S. Spencer, E. W. Tait,     |
 |  G. Teobaldi, D. Turban, V. Vitale, K. A. Wilkinson,          |
 |  C. Weber, J. C. Womack, N. Yeung and T. J. Zuehlsdorff       |
 |                                                               |
 |                                   Copyright (c) 2004-2020     |
 |                                                               |
 |  Please cite:                                                 |
 |  "Introducing ONETEP: Linear-scaling density functional       |
 |   simulations on parallel computers".                         |
 |   C.-K. Skylaris, P. D. Haynes, A. A. Mostofi, M. C. Payne.   |
 |   J. Chem. Phys. 122 084119 (2005).                           |
 |                                                               |
 |          in all publications arising from your use of ONETEP. |
 |                                                               |
 +---------------------------------------------------------------+
 |                                                               |
 |   ONETEP is based on developments described in the following  |
 |   publications:                                               |
 |                                                               |
 |  "Nonorthogonal generalized Wannier function pseudopotential  |
 |   plane-wave method".                                         |
 |   C.-K. Skylaris, A. A. Mostofi, P. D. Haynes, O. Dieguez,    |
 |   M. C. Payne.                                                |
 |   Phys. Rev. B 66 035119 (2002).                              |
 |                                                               |
 |  "Preconditioned iterative minimization for linear-scaling    |
 |   electronic structure calculations".                         |
 |   A. A. Mostofi, P. D. Haynes, C.-K. Skylaris, M. C. Payne.   |
 |   J. Chem. Phys. 119(17), pp.8842-8848 (2003).                |
 |                                                               |
 |  "Total-energy calculations on a real space grid with         |
 |   localized functions and a plane-wave basis".                |
 |   A. A. Mostofi, C.-K. Skylaris, P. D. Haynes, M. C. Payne.   |
 |   Comput. Phys. Commun. 147, pp.788-802 (2002).               |
 |                                                               |
 |  "Accurate kinetic energy evaluation in electronic structure  |
 |   calculations with localized functions on real space grids"  |
 |   C.-K. Skylaris, A. A. Mostofi, P. D. Haynes, C. J. Pickard, |
 |   M. C. Payne.                                                |
 |   Comput. Phys. Commun. 140, pp.315-322 (2001).               |
 |                                                               |
 |  "Accurate ionic forces and geometry optimization in linear-  |
 |   scaling density-functional theory with local orbitals"      |
 |   N. D. M. Hine, M. Robinson, P. D. Haynes, C.-K. Skylaris,   |
 |   M. C. Payne, and A. A. Mostofi.                             |
 |   Phys. Rev. B 83 195102 (2011).                              |
 |                                                               |
 +---------------------------------------------------------------+

Job started: 25-02-2020 11:39 (-0000)
 
Reading parameters from file "3.21716088_GO_manual_4x64graphite.dat" ...

WARNING: "cutoff_energy" not specified, but "psinc_spacing" specified.
         Using the latter to set the KE cutoff energy to  732.32021eV,
         thus *overriding* the default.

... done

If your calculation crashes here, before "Checking processes and threads..."
is displayed, then your stack size is insufficient.
If so, use "ulimit -s unlimited" at runtime.
You can disable this check with "check_stack_size F".

Checking processes and threads...
   Determining the default number of threads...
      No default threads set at compilation time: defaulting to 1.
      OpenMP library call suggests 4 threads.
      Hybrid MPI-OpenMP compilation detected.
      Number of MPI processes > 1.
      OMP_NUM_THREADS environment variable present and
      its value matches the one obtained from the OpenMP library call.
      Using this value as default.
      Default threads: 4
      Default applies to threads_max and threads_num_fftboxes.
      Settings in the input file override this default.
   ... done

   Running with 40 MPI processes.
   There are 10 MPI processes running on the same node as the root process.
   Each MPI process is using: 
               1 threads for simulation cell FFTs.
               1 threads for parallel FFT box operations.
               4 threads for loops over batched FFT box operations.
               4 threads in other parallel regions.
... done

Basic input checks...
Resetting ngwf_cg_rotate to TRUE for EDFT calculations
... done

Reading geometry and species blocks from file "3.21716088_GO_manual_4x64graphite.dat" ...
    
  PSINC grid spacing along a1 set to   0.511215680000a0 from input file.
  PSINC grid spacing along a2 set to   0.531284090000a0 from input file.
  PSINC grid spacing along a3 set to   0.506630450000a0 from input file.
  Number of PPD points along a3 set to 1.  This is 
  the default value, it may have been provided also in the input file.
... done
 Writing xyz coordinates to file "3.21716088_GO_manual_4x64graphite.xyz" ... done


--------------------------------------------------------------------------------
---------------------------------- INPUT FILE ----------------------------------
--------------------------------------------------------------------------------

task : singlepoint                                                              
do_properties : true                                                            
dx_format T                                                                     
edft T                                                                          
output_detail VERBOSE                                                           
write_xyz T                                                                     
xc_functional OPTB88                                                            
PSINC_SPACING 0.51121568 0.53128409 0.50663045                                  
paw T                                                                           
pdos_max_l = 2                                                                  
dos_smear  0.1 eV                                                               
popn_calculate T                                                                
PDOS_PSEUDOATOMIC T                                                             
PDOS_REDUCE_SWS F                                                               
PDOS_CONSTRUCT_BASIS F                                                          
PDOS_LOWDIN T                                                                   
PDOS_ORTH_ATOM_BLOCKS F                                                         
PDOS_LCAO_OPTIMIZE F                                                            
pdos_optados_output T                                                           
homo_plot 0                                                                     
lumo_plot 0                                                                     
homo_dens_plot -1                                                               
lumo_dens_plot -1                                                               
%BLOCK SPECIES                                                                  
C C 6 4 9.0                                                                     
%ENDBLOCK SPECIES                                                               
%BLOCK SPECIES_POT                                                              
C "~/pp/paw/c_pbe_abinit.paw"                                                   
%ENDBLOCK SPECIES_POT                                                           
%BLOCK SPECIES_ATOMIC_SET                                                       
C "SOLVE conf=2s2 2p2"                                                          
%ENDBLOCK SPECIES_ATOMIC_SET                                                    
%BLOCK LATTICE_CART                                                             
32.21  0.00  0.00                                                               
0.00 18.59  0.00                                                                
0.00  0.00 60.80                                                                
%ENDBLOCK LATTICE_CART                                                          
%BLOCK POSITIONS_ABS                                                            
C  0.00  0.00  3.04                                                             
C  0.00  0.00 15.20                                                             
C  0.00  0.00 27.36                                                             
C  0.00  0.00 39.52                                                             
C  0.00  0.00 51.68                                                             
C  0.00  4.65  3.04                                                             
C  0.00  4.65 15.20                                                             
C  0.00  4.65 27.36                                                             
C  0.00  4.65 39.52                                                             
C  0.00  4.65 51.68                                                             
C  4.03  2.32  3.04                                                             
C  4.03  2.32 15.20                                                             
C  4.03  2.32 27.36                                                             
C  4.03  2.32 39.52                                                             
C  4.03  2.32 51.68                                                             
C  8.05  0.00  3.04                                                             
C  8.05  0.00 15.20                                                             
C  8.05  0.00 27.36                                                             
C  8.05  0.00 39.52                                                             
C  8.05  0.00 51.68                                                             
C  0.00  9.30  3.04                                                             
C  0.00  9.30 15.20                                                             
C  0.00  9.30 27.36                                                             
C  0.00  9.30 39.52                                                             
C  0.00  9.30 51.68                                                             
C  4.03  6.97  3.04                                                             
C  4.03  6.97 15.20                                                             
C  4.03  6.97 27.36                                                             
C  4.03  6.97 39.52                                                             
C  4.03  6.97 51.68                                                             
C  8.05  4.65  3.04                                                             
C  8.05  4.65 15.20                                                             
C  8.05  4.65 27.36                                                             
C  8.05  4.65 39.52                                                             
C  8.05  4.65 51.68                                                             
C 12.08  2.32  3.04                                                             
C 12.08  2.32 15.20                                                             
C 12.08  2.32 27.36                                                             
C 12.08  2.32 39.52                                                             
C 12.08  2.32 51.68                                                             
C 16.10  0.00  3.04                                                             
C 16.10  0.00 15.20                                                             
C 16.10  0.00 27.36                                                             
C 16.10  0.00 39.52                                                             
C 16.10  0.00 51.68                                                             
C  0.00 13.95  3.04                                                             
C  0.00 13.95 15.20                                                             
C  0.00 13.95 27.36                                                             
C  0.00 13.95 39.52                                                             
C  0.00 13.95 51.68                                                             
C  4.03 11.62  3.04                                                             
C  4.03 11.62 15.20                                                             
C  4.03 11.62 27.36                                                             
C  4.03 11.62 39.52                                                             
C  4.03 11.62 51.68                                                             
C  8.05  9.30  3.04                                                             
C  8.05  9.30 15.20                                                             
C  8.05  9.30 27.36                                                             
C  8.05  9.30 39.52                                                             
C  8.05  9.30 51.68                                                             
C 12.08  6.97  3.04                                                             
C 12.08  6.97 15.20                                                             
C 12.08  6.97 27.36                                                             
C 12.08  6.97 39.52                                                             
C 12.08  6.97 51.68                                                             
C 16.10  4.65  3.04                                                             
C 16.10  4.65 15.20                                                             
C 16.10  4.65 27.36                                                             
C 16.10  4.65 39.52                                                             
C 16.10  4.65 51.68                                                             
C 20.13  2.32  3.04                                                             
C 20.13  2.32 15.20                                                             
C 20.13  2.32 27.36                                                             
C 20.13  2.32 39.52                                                             
C 20.13  2.32 51.68                                                             
C 24.16  0.00  3.04                                                             
C 24.16  0.00 15.20                                                             
C 24.16  0.00 27.36                                                             
C 24.16  0.00 39.52                                                             
C 24.16  0.00 51.68                                                             
C  4.03 16.27  3.04                                                             
C  4.03 16.27 15.20                                                             
C  4.03 16.27 27.36                                                             
C  4.03 16.27 39.52                                                             
C  4.03 16.27 51.68                                                             
C  8.05 13.95  3.04                                                             
C  8.05 13.95 15.20                                                             
C  8.05 13.95 27.36                                                             
C  8.05 13.95 39.52                                                             
C  8.05 13.95 51.68                                                             
C 12.08 11.62  3.04                                                             
C 12.08 11.62 15.20                                                             
C 12.08 11.62 27.36                                                             
C 12.08 11.62 39.52                                                             
C 12.08 11.62 51.68                                                             
C 16.10  9.30  3.04                                                             
C 16.10  9.30 15.20                                                             
C 16.10  9.30 27.36                                                             
C 16.10  9.30 39.52                                                             
C 16.10  9.30 51.68                                                             
C 20.13  6.97  3.04                                                             
C 20.13  6.97 15.20                                                             
C 20.13  6.97 27.36                                                             
C 20.13  6.97 39.52                                                             
C 20.13  6.97 51.68                                                             
C 24.16  4.65  3.04                                                             
C 24.16  4.65 15.20                                                             
C 24.16  4.65 27.36                                                             
C 24.16  4.65 39.52                                                             
C 24.16  4.65 51.68                                                             
C 28.18  2.32  3.04                                                             
C 28.18  2.32 15.20                                                             
C 28.18  2.32 27.36                                                             
C 28.18  2.32 39.52                                                             
C 28.18  2.32 51.68                                                             
C 12.08 16.27  3.04                                                             
C 12.08 16.27 15.20                                                             
C 12.08 16.27 27.36                                                             
C 12.08 16.27 39.52                                                             
C 12.08 16.27 51.68                                                             
C 16.10 13.95  3.04                                                             
C 16.10 13.95 15.20                                                             
C 16.10 13.95 27.36                                                             
C 16.10 13.95 39.52                                                             
C 16.10 13.95 51.68                                                             
C 20.13 11.62  3.04                                                             
C 20.13 11.62 15.20                                                             
C 20.13 11.62 27.36                                                             
C 20.13 11.62 39.52                                                             
C 20.13 11.62 51.68                                                             
C 24.16  9.30  3.04                                                             
C 24.16  9.30 15.20                                                             
C 24.16  9.30 27.36                                                             
C 24.16  9.30 39.52                                                             
C 24.16  9.30 51.68                                                             
C 28.18  6.97  3.04                                                             
C 28.18  6.97 15.20                                                             
C 28.18  6.97 27.36                                                             
C 28.18  6.97 39.52                                                             
C 28.18  6.97 51.68                                                             
C 20.13 16.27  3.04                                                             
C 20.13 16.27 15.20                                                             
C 20.13 16.27 27.36                                                             
C 20.13 16.27 39.52                                                             
C 20.13 16.27 51.68                                                             
C 24.16 13.95  3.04                                                             
C 24.16 13.95 15.20                                                             
C 24.16 13.95 27.36                                                             
C 24.16 13.95 39.52                                                             
C 24.16 13.95 51.68                                                             
C 28.18 11.62  3.04                                                             
C 28.18 11.62 15.20                                                             
C 28.18 11.62 27.36                                                             
C 28.18 11.62 39.52                                                             
C 28.18 11.62 51.68                                                             
C 28.18 16.27  3.04                                                             
C 28.18 16.27 15.20                                                             
C 28.18 16.27 27.36                                                             
C 28.18 16.27 39.52                                                             
C 28.18 16.27 51.68                                                             
C  0.00  0.00  9.12                                                             
C  0.00  0.00 21.28                                                             
C  0.00  0.00 33.44                                                             
C  0.00  0.00 45.60                                                             
C  0.00  0.00 57.76                                                             
C  0.00  4.65  9.12                                                             
C  0.00  4.65 21.28                                                             
C  0.00  4.65 33.44                                                             
C  0.00  4.65 45.60                                                             
C  0.00  4.65 57.76                                                             
C  4.03  2.32  9.12                                                             
C  4.03  2.32 21.28                                                             
C  4.03  2.32 33.44                                                             
C  4.03  2.32 45.60                                                             
C  4.03  2.32 57.76                                                             
C  8.05  0.00  9.12                                                             
C  8.05  0.00 21.28                                                             
C  8.05  0.00 33.44                                                             
C  8.05  0.00 45.60                                                             
C  8.05  0.00 57.76                                                             
C  0.00  9.30  9.12                                                             
C  0.00  9.30 21.28                                                             
C  0.00  9.30 33.44                                                             
C  0.00  9.30 45.60                                                             
C  0.00  9.30 57.76                                                             
C  4.03  6.97  9.12                                                             
C  4.03  6.97 21.28                                                             
C  4.03  6.97 33.44                                                             
C  4.03  6.97 45.60                                                             
C  4.03  6.97 57.76                                                             
C  8.05  4.65  9.12                                                             
C  8.05  4.65 21.28                                                             
C  8.05  4.65 33.44                                                             
C  8.05  4.65 45.60                                                             
C  8.05  4.65 57.76                                                             
C 12.08  2.32  9.12                                                             
C 12.08  2.32 21.28                                                             
C 12.08  2.32 33.44                                                             
C 12.08  2.32 45.60                                                             
C 12.08  2.32 57.76                                                             
C 16.10  0.00  9.12                                                             
C 16.10  0.00 21.28                                                             
C 16.10  0.00 33.44                                                             
C 16.10  0.00 45.60                                                             
C 16.10  0.00 57.76                                                             
C  0.00 13.95  9.12                                                             
C  0.00 13.95 21.28                                                             
C  0.00 13.95 33.44                                                             
C  0.00 13.95 45.60                                                             
C  0.00 13.95 57.76                                                             
C  4.03 11.62  9.12                                                             
C  4.03 11.62 21.28                                                             
C  4.03 11.62 33.44                                                             
C  4.03 11.62 45.60                                                             
C  4.03 11.62 57.76                                                             
C  8.05  9.30  9.12                                                             
C  8.05  9.30 21.28                                                             
C  8.05  9.30 33.44                                                             
C  8.05  9.30 45.60                                                             
C  8.05  9.30 57.76                                                             
C 12.08  6.97  9.12                                                             
C 12.08  6.97 21.28                                                             
C 12.08  6.97 33.44                                                             
C 12.08  6.97 45.60                                                             
C 12.08  6.97 57.76                                                             
C 16.10  4.65  9.12                                                             
C 16.10  4.65 21.28                                                             
C 16.10  4.65 33.44                                                             
C 16.10  4.65 45.60                                                             
C 16.10  4.65 57.76                                                             
C 20.13  2.32  9.12                                                             
C 20.13  2.32 21.28                                                             
C 20.13  2.32 33.44                                                             
C 20.13  2.32 45.60                                                             
C 20.13  2.32 57.76                                                             
C 24.16  0.00  9.12                                                             
C 24.16  0.00 21.28                                                             
C 24.16  0.00 33.44                                                             
C 24.16  0.00 45.60                                                             
C 24.16  0.00 57.76                                                             
C  4.03 16.27  9.12                                                             
C  4.03 16.27 21.28                                                             
C  4.03 16.27 33.44                                                             
C  4.03 16.27 45.60                                                             
C  4.03 16.27 57.76                                                             
C  8.05 13.95  9.12                                                             
C  8.05 13.95 21.28                                                             
C  8.05 13.95 33.44                                                             
C  8.05 13.95 45.60                                                             
C  8.05 13.95 57.76                                                             
C 12.08 11.62  9.12                                                             
C 12.08 11.62 21.28                                                             
C 12.08 11.62 33.44                                                             
C 12.08 11.62 45.60                                                             
C 12.08 11.62 57.76                                                             
C 16.10  9.30  9.12                                                             
C 16.10  9.30 21.28                                                             
C 16.10  9.30 33.44                                                             
C 16.10  9.30 45.60                                                             
C 16.10  9.30 57.76                                                             
C 20.13  6.97  9.12                                                             
C 20.13  6.97 21.28                                                             
C 20.13  6.97 33.44                                                             
C 20.13  6.97 45.60                                                             
C 20.13  6.97 57.76                                                             
C 24.16  4.65  9.12                                                             
C 24.16  4.65 21.28                                                             
C 24.16  4.65 33.44                                                             
C 24.16  4.65 45.60                                                             
C 24.16  4.65 57.76                                                             
C 28.18  2.32  9.12                                                             
C 28.18  2.32 21.28                                                             
C 28.18  2.32 33.44                                                             
C 28.18  2.32 45.60                                                             
C 28.18  2.32 57.76                                                             
C 12.08 16.27  9.12                                                             
C 12.08 16.27 21.28                                                             
C 12.08 16.27 33.44                                                             
C 12.08 16.27 45.60                                                             
C 12.08 16.27 57.76                                                             
C 16.10 13.95  9.12                                                             
C 16.10 13.95 21.28                                                             
C 16.10 13.95 33.44                                                             
C 16.10 13.95 45.60                                                             
C 16.10 13.95 57.76                                                             
C 20.13 11.62  9.12                                                             
C 20.13 11.62 21.28                                                             
C 20.13 11.62 33.44                                                             
C 20.13 11.62 45.60                                                             
C 20.13 11.62 57.76                                                             
C 24.16  9.30  9.12                                                             
C 24.16  9.30 21.28                                                             
C 24.16  9.30 33.44                                                             
C 24.16  9.30 45.60                                                             
C 24.16  9.30 57.76                                                             
C 28.18  6.97  9.12                                                             
C 28.18  6.97 21.28                                                             
C 28.18  6.97 33.44                                                             
C 28.18  6.97 45.60                                                             
C 28.18  6.97 57.76                                                             
C 20.13 16.27  9.12                                                             
C 20.13 16.27 21.28                                                             
C 20.13 16.27 33.44                                                             
C 20.13 16.27 45.60                                                             
C 20.13 16.27 57.76                                                             
C 24.16 13.95  9.12                                                             
C 24.16 13.95 21.28                                                             
C 24.16 13.95 33.44                                                             
C 24.16 13.95 45.60                                                             
C 24.16 13.95 57.76                                                             
C 28.18 11.62  9.12                                                             
C 28.18 11.62 21.28                                                             
C 28.18 11.62 33.44                                                             
C 28.18 11.62 45.60                                                             
C 28.18 11.62 57.76                                                             
C 28.18 16.27  9.12                                                             
C 28.18 16.27 21.28                                                             
C 28.18 16.27 33.44                                                             
C 28.18 16.27 45.60                                                             
C 28.18 16.27 57.76                                                             
C  1.34  2.32  3.04                                                             
C  1.34  2.32 15.20                                                             
C  1.34  2.32 27.36                                                             
C  1.34  2.32 39.52                                                             
C  1.34  2.32 51.68                                                             
C  5.37  0.00  3.04                                                             
C  5.37  0.00 15.20                                                             
C  5.37  0.00 27.36                                                             
C  5.37  0.00 39.52                                                             
C  5.37  0.00 51.68                                                             
C  1.34  6.97  3.04                                                             
C  1.34  6.97 15.20                                                             
C  1.34  6.97 27.36                                                             
C  1.34  6.97 39.52                                                             
C  1.34  6.97 51.68                                                             
C  5.37  4.65  3.04                                                             
C  5.37  4.65 15.20                                                             
C  5.37  4.65 27.36                                                             
C  5.37  4.65 39.52                                                             
C  5.37  4.65 51.68                                                             
C  9.39  2.32  3.04                                                             
C  9.39  2.32 15.20                                                             
C  9.39  2.32 27.36                                                             
C  9.39  2.32 39.52                                                             
C  9.39  2.32 51.68                                                             
C 13.42  0.00  3.04                                                             
C 13.42  0.00 15.20                                                             
C 13.42  0.00 27.36                                                             
C 13.42  0.00 39.52                                                             
C 13.42  0.00 51.68                                                             
C  1.34 11.62  3.04                                                             
C  1.34 11.62 15.20                                                             
C  1.34 11.62 27.36                                                             
C  1.34 11.62 39.52                                                             
C  1.34 11.62 51.68                                                             
C  5.37  9.30  3.04                                                             
C  5.37  9.30 15.20                                                             
C  5.37  9.30 27.36                                                             
C  5.37  9.30 39.52                                                             
C  5.37  9.30 51.68                                                             
C  9.39  6.97  3.04                                                             
C  9.39  6.97 15.20                                                             
C  9.39  6.97 27.36                                                             
C  9.39  6.97 39.52                                                             
C  9.39  6.97 51.68                                                             
C 13.42  4.65  3.04                                                             
C 13.42  4.65 15.20                                                             
C 13.42  4.65 27.36                                                             
C 13.42  4.65 39.52                                                             
C 13.42  4.65 51.68                                                             
C 17.45  2.32  3.04                                                             
C 17.45  2.32 15.20                                                             
C 17.45  2.32 27.36                                                             
C 17.45  2.32 39.52                                                             
C 17.45  2.32 51.68                                                             
C 21.47  0.00  3.04                                                             
C 21.47  0.00 15.20                                                             
C 21.47  0.00 27.36                                                             
C 21.47  0.00 39.52                                                             
C 21.47  0.00 51.68                                                             
C  1.34 16.27  3.04                                                             
C  1.34 16.27 15.20                                                             
C  1.34 16.27 27.36                                                             
C  1.34 16.27 39.52                                                             
C  1.34 16.27 51.68                                                             
C  5.37 13.95  3.04                                                             
C  5.37 13.95 15.20                                                             
C  5.37 13.95 27.36                                                             
C  5.37 13.95 39.52                                                             
C  5.37 13.95 51.68                                                             
C  9.39 11.62  3.04                                                             
C  9.39 11.62 15.20                                                             
C  9.39 11.62 27.36                                                             
C  9.39 11.62 39.52                                                             
C  9.39 11.62 51.68                                                             
C 13.42  9.30  3.04                                                             
C 13.42  9.30 15.20                                                             
C 13.42  9.30 27.36                                                             
C 13.42  9.30 39.52                                                             
C 13.42  9.30 51.68                                                             
C 17.45  6.97  3.04                                                             
C 17.45  6.97 15.20                                                             
C 17.45  6.97 27.36                                                             
C 17.45  6.97 39.52                                                             
C 17.45  6.97 51.68                                                             
C 21.47  4.65  3.04                                                             
C 21.47  4.65 15.20                                                             
C 21.47  4.65 27.36                                                             
C 21.47  4.65 39.52                                                             
C 21.47  4.65 51.68                                                             
C 25.50  2.32  3.04                                                             
C 25.50  2.32 15.20                                                             
C 25.50  2.32 27.36                                                             
C 25.50  2.32 39.52                                                             
C 25.50  2.32 51.68                                                             
C 29.52  0.00  3.04                                                             
C 29.52  0.00 15.20                                                             
C 29.52  0.00 27.36                                                             
C 29.52  0.00 39.52                                                             
C 29.52  0.00 51.68                                                             
C  9.39 16.27  3.04                                                             
C  9.39 16.27 15.20                                                             
C  9.39 16.27 27.36                                                             
C  9.39 16.27 39.52                                                             
C  9.39 16.27 51.68                                                             
C 13.42 13.95  3.04                                                             
C 13.42 13.95 15.20                                                             
C 13.42 13.95 27.36                                                             
C 13.42 13.95 39.52                                                             
C 13.42 13.95 51.68                                                             
C 17.45 11.62  3.04                                                             
C 17.45 11.62 15.20                                                             
C 17.45 11.62 27.36                                                             
C 17.45 11.62 39.52                                                             
C 17.45 11.62 51.68                                                             
C 21.47  9.30  3.04                                                             
C 21.47  9.30 15.20                                                             
C 21.47  9.30 27.36                                                             
C 21.47  9.30 39.52                                                             
C 21.47  9.30 51.68                                                             
C 25.50  6.97  3.04                                                             
C 25.50  6.97 15.20                                                             
C 25.50  6.97 27.36                                                             
C 25.50  6.97 39.52                                                             
C 25.50  6.97 51.68                                                             
C 29.52  4.65  3.04                                                             
C 29.52  4.65 15.20                                                             
C 29.52  4.65 27.36                                                             
C 29.52  4.65 39.52                                                             
C 29.52  4.65 51.68                                                             
C 17.45 16.27  3.04                                                             
C 17.45 16.27 15.20                                                             
C 17.45 16.27 27.36                                                             
C 17.45 16.27 39.52                                                             
C 17.45 16.27 51.68                                                             
C 21.47 13.95  3.04                                                             
C 21.47 13.95 15.20                                                             
C 21.47 13.95 27.36                                                             
C 21.47 13.95 39.52                                                             
C 21.47 13.95 51.68                                                             
C 25.50 11.62  3.04                                                             
C 25.50 11.62 15.20                                                             
C 25.50 11.62 27.36                                                             
C 25.50 11.62 39.52                                                             
C 25.50 11.62 51.68                                                             
C 29.52  9.30  3.04                                                             
C 29.52  9.30 15.20                                                             
C 29.52  9.30 27.36                                                             
C 29.52  9.30 39.52                                                             
C 29.52  9.30 51.68                                                             
C 25.50 16.27  3.04                                                             
C 25.50 16.27 15.20                                                             
C 25.50 16.27 27.36                                                             
C 25.50 16.27 39.52                                                             
C 25.50 16.27 51.68                                                             
C 29.52 13.95  3.04                                                             
C 29.52 13.95 15.20                                                             
C 29.52 13.95 27.36                                                             
C 29.52 13.95 39.52                                                             
C 29.52 13.95 51.68                                                             
C  2.68  0.00  9.12                                                             
C  2.68  0.00 21.28                                                             
C  2.68  0.00 33.44                                                             
C  2.68  0.00 45.60                                                             
C  2.68  0.00 57.76                                                             
C  2.68  4.65  9.12                                                             
C  2.68  4.65 21.28                                                             
C  2.68  4.65 33.44                                                             
C  2.68  4.65 45.60                                                             
C  2.68  4.65 57.76                                                             
C  6.71  2.32  9.12                                                             
C  6.71  2.32 21.28                                                             
C  6.71  2.32 33.44                                                             
C  6.71  2.32 45.60                                                             
C  6.71  2.32 57.76                                                             
C 10.74  0.00  9.12                                                             
C 10.74  0.00 21.28                                                             
C 10.74  0.00 33.44                                                             
C 10.74  0.00 45.60                                                             
C 10.74  0.00 57.76                                                             
C  2.68  9.30  9.12                                                             
C  2.68  9.30 21.28                                                             
C  2.68  9.30 33.44                                                             
C  2.68  9.30 45.60                                                             
C  2.68  9.30 57.76                                                             
C  6.71  6.97  9.12                                                             
C  6.71  6.97 21.28                                                             
C  6.71  6.97 33.44                                                             
C  6.71  6.97 45.60                                                             
C  6.71  6.97 57.76                                                             
C 10.74  4.65  9.12                                                             
C 10.74  4.65 21.28                                                             
C 10.74  4.65 33.44                                                             
C 10.74  4.65 45.60                                                             
C 10.74  4.65 57.76                                                             
C 14.76  2.32  9.12                                                             
C 14.76  2.32 21.28                                                             
C 14.76  2.32 33.44                                                             
C 14.76  2.32 45.60                                                             
C 14.76  2.32 57.76                                                             
C 18.79  0.00  9.12                                                             
C 18.79  0.00 21.28                                                             
C 18.79  0.00 33.44                                                             
C 18.79  0.00 45.60                                                             
C 18.79  0.00 57.76                                                             
C  2.68 13.95  9.12                                                             
C  2.68 13.95 21.28                                                             
C  2.68 13.95 33.44                                                             
C  2.68 13.95 45.60                                                             
C  2.68 13.95 57.76                                                             
C  6.71 11.62  9.12                                                             
C  6.71 11.62 21.28                                                             
C  6.71 11.62 33.44                                                             
C  6.71 11.62 45.60                                                             
C  6.71 11.62 57.76                                                             
C 10.74  9.30  9.12                                                             
C 10.74  9.30 21.28                                                             
C 10.74  9.30 33.44                                                             
C 10.74  9.30 45.60                                                             
C 10.74  9.30 57.76                                                             
C 14.76  6.97  9.12                                                             
C 14.76  6.97 21.28                                                             
C 14.76  6.97 33.44                                                             
C 14.76  6.97 45.60                                                             
C 14.76  6.97 57.76                                                             
C 18.79  4.65  9.12                                                             
C 18.79  4.65 21.28                                                             
C 18.79  4.65 33.44                                                             
C 18.79  4.65 45.60                                                             
C 18.79  4.65 57.76                                                             
C 22.81  2.32  9.12                                                             
C 22.81  2.32 21.28                                                             
C 22.81  2.32 33.44                                                             
C 22.81  2.32 45.60                                                             
C 22.81  2.32 57.76                                                             
C 26.84  0.00  9.12                                                             
C 26.84  0.00 21.28                                                             
C 26.84  0.00 33.44                                                             
C 26.84  0.00 45.60                                                             
C 26.84  0.00 57.76                                                             
C  6.71 16.27  9.12                                                             
C  6.71 16.27 21.28                                                             
C  6.71 16.27 33.44                                                             
C  6.71 16.27 45.60                                                             
C  6.71 16.27 57.76                                                             
C 10.74 13.95  9.12                                                             
C 10.74 13.95 21.28                                                             
C 10.74 13.95 33.44                                                             
C 10.74 13.95 45.60                                                             
C 10.74 13.95 57.76                                                             
C 14.76 11.62  9.12                                                             
C 14.76 11.62 21.28                                                             
C 14.76 11.62 33.44                                                             
C 14.76 11.62 45.60                                                             
C 14.76 11.62 57.76                                                             
C 18.79  9.30  9.12                                                             
C 18.79  9.30 21.28                                                             
C 18.79  9.30 33.44                                                             
C 18.79  9.30 45.60                                                             
C 18.79  9.30 57.76                                                             
C 22.81  6.97  9.12                                                             
C 22.81  6.97 21.28                                                             
C 22.81  6.97 33.44                                                             
C 22.81  6.97 45.60                                                             
C 22.81  6.97 57.76                                                             
C 26.84  4.65  9.12                                                             
C 26.84  4.65 21.28                                                             
C 26.84  4.65 33.44                                                             
C 26.84  4.65 45.60                                                             
C 26.84  4.65 57.76                                                             
C 30.86  2.32  9.12                                                             
C 30.86  2.32 21.28                                                             
C 30.86  2.32 33.44                                                             
C 30.86  2.32 45.60                                                             
C 30.86  2.32 57.76                                                             
C 14.76 16.27  9.12                                                             
C 14.76 16.27 21.28                                                             
C 14.76 16.27 33.44                                                             
C 14.76 16.27 45.60                                                             
C 14.76 16.27 57.76                                                             
C 18.79 13.95  9.12                                                             
C 18.79 13.95 21.28                                                             
C 18.79 13.95 33.44                                                             
C 18.79 13.95 45.60                                                             
C 18.79 13.95 57.76                                                             
C 22.81 11.62  9.12                                                             
C 22.81 11.62 21.28                                                             
C 22.81 11.62 33.44                                                             
C 22.81 11.62 45.60                                                             
C 22.81 11.62 57.76                                                             
C 26.84  9.30  9.12                                                             
C 26.84  9.30 21.28                                                             
C 26.84  9.30 33.44                                                             
C 26.84  9.30 45.60                                                             
C 26.84  9.30 57.76                                                             
C 30.86  6.97  9.12                                                             
C 30.86  6.97 21.28                                                             
C 30.86  6.97 33.44                                                             
C 30.86  6.97 45.60                                                             
C 30.86  6.97 57.76                                                             
C 22.81 16.27  9.12                                                             
C 22.81 16.27 21.28                                                             
C 22.81 16.27 33.44                                                             
C 22.81 16.27 45.60                                                             
C 22.81 16.27 57.76                                                             
C 26.84 13.95  9.12                                                             
C 26.84 13.95 21.28                                                             
C 26.84 13.95 33.44                                                             
C 26.84 13.95 45.60                                                             
C 26.84 13.95 57.76                                                             
C 30.86 11.62  9.12                                                             
C 30.86 11.62 21.28                                                             
C 30.86 11.62 33.44                                                             
C 30.86 11.62 45.60                                                             
C 30.86 11.62 57.76                                                             
C 30.86 16.27  9.12                                                             
C 30.86 16.27 21.28                                                             
C 30.86 16.27 33.44                                                             
C 30.86 16.27 45.60                                                             
C 30.86 16.27 57.76                                                             
%ENDBLOCK POSITIONS_ABS                                                         

--------------------------------------------------------------------------------
-------------------------------- END INPUT FILE --------------------------------
--------------------------------------------------------------------------------


 
<<<<<<<<<<<<<<<<<<<<<<<<<<<<<<<<< Full system >>>>>>>>>>>>>>>>>>>>>>>>>>>>>>>>>>
<<<<<<<<<<<<<<<<<<<<<<<<<<< PAW Dataset information >>>>>>>>>>>>>>>>>>>>>>>>>>>
File: ~/pp/paw/c_pbe_abinit.paw; rc = 1.25 bohr; shape type =  3; rshape = 1.25 bohr;
  Atomic number:  6;  ionic charge:  4.000000
    Partial Wave 1: l = 0
    Partial Wave 2: l = 0
    Partial Wave 3: l = 1
    Partial Wave 4: l = 1
  Core charge supplied for Nonlinear Core Corrections
<<<<<<<<<<<<<<<<<<<<<<<<<<<<<<<<<<<<<<< >>>>>>>>>>>>>>>>>>>>>>>>>>>>>>>>>>>>>>>

-------------------------- Atom counting information ---------------------------
Symbol    Natoms    Nngwfs    Nprojs
  C        640      2560      5120
.......   ......    ......    ......
Totals:    640      2560      5120
--------------------------------------------------------------------------------

=============================== PSINC grid sizes ===============================
                      Simulation cell:   63 x  35 x 120
                              FFT-box:   63 x  35 x 117
                                  PPD:    7 x   5 x   1
Grid space d1=  0.511269841270a0 (KE cutoff=  29.06054Eh = 790.77748eV)
Grid space d2=  0.531142857143a0 (KE cutoff=  26.92659Eh = 732.70972eV)
Grid space d3=  0.506666666667a0 (KE cutoff=  29.59098Eh = 805.21151eV)
================================================================================
  
WARNING in cell_grid_distribute:
Average of less than one 23-slab per node, so workload cannot be
equally balanced between nodes.

********************* Fourier parallelisation information **********************
       Coarse grid (whole simulation cell) dimensions:     63    35   120
          Real-space ('12') slabs/node (min max mean):      3     3     3
         Recip-space ('23') slabs/node (min max mean):      0     1     0
********************************************************************************

********************* Fourier parallelisation information **********************
       Double grid (whole simulation cell) dimensions:    126    70   240
          Real-space ('12') slabs/node (min max mean):      6     6     6
         Recip-space ('23') slabs/node (min max mean):      1     2     1
********************************************************************************

Atom SCF Calculation for C  : Z (AE atom) =   6 : Z (PS atom) =   4
Config String: 2s2 2p2
Orbitals (num,occ):  2     2.00 2.00
Orbitals   (num,l):  2        0    1
Real-space Grid (nr,dr,rmax): 1293    0.0069659443    9.0000000000
Spherical Bessel Basis (nsws,lmax,cutoff):   37    2  161.4736382572
Confining potential (l,width,scale):  0    3.0000000000  100.0000000000
Confining potential (l,width,scale):  1    3.0000000000  100.0000000000
  1         -5.4468762137   -1.3311033486    4.5135257941   -1.6400141247
  2         -5.4563922850   -1.3925089082    4.4492606193   -1.6178955363
  3         -5.4591606672   -1.4162756486    4.4239316220   -1.6104942496
  4         -5.4639338613   -1.4240698331    4.4156521757   -1.6083566999
  5         -5.4657436445   -1.4272842389    4.4122438165   -1.6075116305
  6         -5.4665049591   -1.4285796230    4.4108740217   -1.6071800157
  7         -5.4668137280   -1.4291083664    4.4103163978   -1.6070462938
  8         -5.4669397753   -1.4293243321    4.4100892688   -1.6069921003
  9         -5.4669910134   -1.4294128082    4.4099964732   -1.6069700140
 10         -5.4670118707   -1.4294491026    4.4099585094   -1.6069609935
 11         -5.4670203648   -1.4294640137    4.4099429536   -1.6069573023
 12         -5.4670238269   -1.4294701480    4.4099365706   -1.6069557895
 13         -5.4670252393   -1.4294726750    4.4099339478   -1.6069551687
 14         -5.4670258160   -1.4294737172    4.4099328686   -1.6069549136
 15         -5.4670260518   -1.4294741476    4.4099324241   -1.6069548086
 16         -5.4670261483   -1.4294743256    4.4099322407   -1.6069547654
Atom SCF converged after  16 iterations to a total energy of     -5.46702615

Determining parallel strategy ...
... using space-filling curve
... NGWF load balancing: max     64;  min     64;  average     64
... Projector load balancing: max    128;  min    128;  average    128
... done
Calculating Ewald energy ...
              Ewald: real-space energy =    9523.991193
        Ewald: reciprocal-space energy =       0.044294
         Ewald: (sum_charge)**2 Energy =   11472.693175
         Ewald: (sum_charge**2) Energy =     906.996033
                          Ewald Energy =   -2855.653722
Basis initialisation ...... NGWF spheres initialised
... Projector spheres initialised
... NGWF tight boxes initialised
... Projector tight boxes initialised
... Tight-boxes gathered
... NGWF basis size (local,global):     694036  27886560
... PAW projector initialisation
... done

============================= Charge Augmentation ==============================
                           Aug box size:   11 x  11 x  11
================================================================================

========================== Sparse matrix information ===========================
                        Overlap matrix filling:  44.38%
                        Density kernel filling: 100.00%
              NGWF-Proj overlap matrix filling:  13.12%
                    Aug Overlap matrix filling:  47.81%
                    Hamiltonian matrix filling:  47.81%
                  NGWF diagonal matrix filling:   0.16%
                             KS matrix filling: 100.00% 
                           KSKS matrix filling: 100.00% 
================================================================================

Sparse matrix initialisation ... done
NGWF initialisation ...... done
============ Calculation of NGWF S^-1 using Hotelling algorithm ================ 
         Iteration  |  Frobenius norm and Maximum abs value    (of I-S*S_n^-1)   
               1       0.49207149E+02     0.97787428E+00
               2       0.48077898E+02     0.95753468E+00
               3       0.46350335E+02     0.92124476E+00
               4       0.44060607E+02     0.86148156E+00
               5       0.41283621E+02     0.77222302E+00
               6       0.38003153E+02     0.68806360E+00
               7       0.34494359E+02     0.63817728E+00
               8       0.31139959E+02     0.59701475E+00
               9       0.27677297E+02     0.55542474E+00
              10       0.23394561E+02     0.49278347E+00
              11       0.17787498E+02     0.39148208E+00
              12       0.11103771E+02     0.25175836E+00
              13       0.49003184E+01     0.10994425E+00
              14       0.11364003E+01     0.23695839E-01
              15       0.72565492E-01     0.13356559E-02
              16       0.36612817E-03     0.53550540E-05
              17       0.13735196E-07     0.12690604E-09
              18       0.82762493E-13     0.39968029E-14
================================================================================
Calculating core density ...
================================= Core Density =================================
               Core den box size:   21 x  21 x  21
================================================================================
 ... done
Up spin density kernel initialisation ...... done

Writing density kernel to file "3.21716088_GO_manual_4x64graphite.dkn" ... done

>>> Optimising kernel for current NGWFs:

--------------------------- Ensemble-DFT optimisation --------------------------
Running ScaLAPACK on   40 processor(s).

--------------------------------------------------------------------------------
  Iter                              Commutator    Free_energy(A=E-TS)     DeltaA
#    0                          0.000046629513   -3653.54994923949607  -3.65E+03

Step                       =       0.381966011250
Energy                     =   -3653.549909505869
Entropy (-TS)              =      -0.000039733874
Free energy (A=E-TS)       =   -3653.549949239496
Est. 0K Energy 0.5*(E+A)   =   -3653.549929372683
Residual Non-orthogonality =       0.000000000000
Residual N_electrons       =       0.000000000248

Spin          Integrated_Ne            Fermi_level     Delta_Fermi_level
   1      2559.999999998928         0.230988541843              2.31E-01

                           Spin 1          
     Orb      H-eigenvalues     Occupancies
       1 |    -0.4915061067    1.0000000000 | 
                          ------
    1276 |     0.1980883307    0.9999692339 | 
    1277 |     0.1987002134    0.9999626764 | 
    1278 |     0.1987002134    0.9999626764 | 
    1279 |     0.1991404528    0.9999571101 | 
    1280 |     0.1997405326    0.9999481623 | 
                 - Gap at zero temperature -
    1281 |     0.2646522081    0.0000241755 | 
    1282 |     0.2646522081    0.0000241755 | 
    1283 |     0.2647679942    0.0000233076 | 
    1284 |     0.2648814041    0.0000224877 | 
    1285 |     0.2648814041    0.0000224877 | 
                          ------
    2560 |     1.0611828127    0.0000000000 | 

                       |  Abs_value |  Threshold | Converged
     Delta_Free_energy |   3.65E+03 |   1.00E-06 |        No
     Delta_Energy      |   3.65E+03 |   1.00E-04 |        No
     Delta_Entropy     |   3.97E-05 |   1.00E-04 |       Yes
     Commutator        |   4.66E-05 |   1.00E-05 |        No
     Delta_Fermi_level |   2.31E-01 |   1.00E-03 |        No

  Line search of the free energy minimum:
  Step_type        Step             Free_energy   Predicted_free_energy
.   Initial    0.000000    -3653.54994923949607
.    Trial1    0.381966    -3653.55214450977019
.    Trial2    0.618034    -3653.55192685399606
. Quadratic    0.457280    -3653.55220506802152    -3653.55220571862264

--------------------------------------------------------------------------------
  Iter                              Commutator    Free_energy(A=E-TS)     DeltaA
#    1                          0.000022599996   -3653.55220506802152  -2.26E-03

Step                       =       0.457279588271
Energy                     =   -3653.552166166971
Entropy (-TS)              =      -0.000038901001
Free energy (A=E-TS)       =   -3653.552205068022
Est. 0K Energy 0.5*(E+A)   =   -3653.552185617496
Residual Non-orthogonality =       0.000000000000
Residual N_electrons       =      -0.000000000050

Spin          Integrated_Ne            Fermi_level     Delta_Fermi_level
   1      2560.000000000216         0.232931224056              1.94E-03

                           Spin 1          
     Orb      H-eigenvalues     Occupancies
       1 |    -0.4905844872    1.0000000000 | 
                          ------
    1276 |     0.2000296032    0.9999692476 | 
    1277 |     0.2005177432    0.9999641226 | 
    1278 |     0.2005177432    0.9999641226 | 
    1279 |     0.2011042584    0.9999568231 | 
    1280 |     0.2015810563    0.9999498078 | 
                 - Gap at zero temperature -
    1281 |     0.2666565475    0.0000237094 | 
    1282 |     0.2666565475    0.0000237094 | 
    1283 |     0.2667941243    0.0000227015 | 
    1284 |     0.2669319918    0.0000217344 | 
    1285 |     0.2669319918    0.0000217344 | 
                          ------
    2560 |     1.0642876231    0.0000000000 | 

                       |  Abs_value |  Threshold | Converged
     Delta_Free_energy |   2.26E-03 |   1.00E-06 |        No
     Delta_Energy      |   2.26E-03 |   1.00E-04 |        No
     Delta_Entropy     |   8.33E-07 |   1.00E-04 |       Yes
     Commutator        |   2.26E-05 |   1.00E-05 |        No
     Delta_Fermi_level |   1.94E-03 |   1.00E-03 |        No

  Line search of the free energy minimum:
  Step_type        Step             Free_energy   Predicted_free_energy
.   Initial    0.000000    -3653.55220506802152
.    Trial1    0.457280    -3653.55253385339302
.    Trial2    0.664580    -3653.55202430777763
. Quadratic    0.303842    -3653.55264702565319    -3653.55264640045743

--------------------------------------------------------------------------------
  Iter                              Commutator    Free_energy(A=E-TS)     DeltaA
#    2                          0.000015025617   -3653.55264702565319  -4.42E-04

Step                       =       0.303841951961
Energy                     =   -3653.552608557827
Entropy (-TS)              =      -0.000038467427
Free energy (A=E-TS)       =   -3653.552647025653
Est. 0K Energy 0.5*(E+A)   =   -3653.552627791740
Residual Non-orthogonality =       0.000000000000
Residual N_electrons       =      -0.000000000400

Spin          Integrated_Ne            Fermi_level     Delta_Fermi_level
   1      2560.000000001712         0.233582621199              6.51E-04

                           Spin 1          
     Orb      H-eigenvalues     Occupancies
       1 |    -0.4902674535    1.0000000000 | 
                          ------
    1276 |     0.2006252390    0.9999697843 | 
    1277 |     0.2011470074    0.9999643725 | 
    1278 |     0.2011470074    0.9999643725 | 
    1279 |     0.2016940113    0.9999576554 | 
    1280 |     0.2022042340    0.9999502530 | 
                 - Gap at zero temperature -
    1281 |     0.2673512143    0.0000233877 | 
    1282 |     0.2673512143    0.0000233877 | 
    1283 |     0.2674863398    0.0000224107 | 
    1284 |     0.2676372235    0.0000213680 | 
    1285 |     0.2676372235    0.0000213680 | 
                          ------
    2560 |     1.0653865735    0.0000000000 | 

                       |  Abs_value |  Threshold | Converged
     Delta_Free_energy |   4.42E-04 |   1.00E-06 |        No
     Delta_Energy      |   4.42E-04 |   1.00E-04 |        No
     Delta_Entropy     |   4.34E-07 |   1.00E-04 |       Yes
     Commutator        |   1.50E-05 |   1.00E-05 |        No
     Delta_Fermi_level |   6.51E-04 |   1.00E-03 |       Yes

  Line search of the free energy minimum:
  Step_type        Step             Free_energy   Predicted_free_energy
.   Initial    0.000000    -3653.55264702565319
.    Trial1    0.303842    -3653.55282030335138
.    Trial2    0.569751    -3653.55260614535018
. Quadratic    0.270017    -3653.55282309952418    -3653.55282306585968

--------------------------------------------------------------------------------
  Iter                              Commutator    Free_energy(A=E-TS)     DeltaA
#    3                          0.000010492645   -3653.55282309952418  -1.76E-04

Step                       =       0.270017013989
Energy                     =   -3653.552784882630
Entropy (-TS)              =      -0.000038216920
Free energy (A=E-TS)       =   -3653.552823099524
Est. 0K Energy 0.5*(E+A)   =   -3653.552803991077
Residual Non-orthogonality =       0.000000000000
Residual N_electrons       =       0.000000000026

Spin          Integrated_Ne            Fermi_level     Delta_Fermi_level
   1      2559.999999999889         0.233989728389              4.07E-04

                           Spin 1          
     Orb      H-eigenvalues     Occupancies
       1 |    -0.4900668266    1.0000000000 | 
                          ------
    1276 |     0.2010081145    0.9999700146 | 
    1277 |     0.2015343424    0.9999645942 | 
    1278 |     0.2015343424    0.9999645942 | 
    1279 |     0.2020757619    0.9999579931 | 
    1280 |     0.2025904195    0.9999505806 | 
                 - Gap at zero temperature -
    1281 |     0.2677804651    0.0000232247 | 
    1282 |     0.2677804651    0.0000232247 | 
    1283 |     0.2679158982    0.0000222524 | 
    1284 |     0.2680670175    0.0000212155 | 
    1285 |     0.2680670175    0.0000212155 | 
                          ------
    2560 |     1.0660770219    0.0000000000 | 

                       |  Abs_value |  Threshold | Converged
     Delta_Free_energy |   1.76E-04 |   1.00E-06 |        No
     Delta_Energy      |   1.76E-04 |   1.00E-04 |        No
     Delta_Entropy     |   2.51E-07 |   1.00E-04 |       Yes
     Commutator        |   1.05E-05 |   1.00E-05 |        No
     Delta_Fermi_level |   4.07E-04 |   1.00E-03 |       Yes

  Line search of the free energy minimum:
  Step_type        Step             Free_energy   Predicted_free_energy
.   Initial    0.000000    -3653.55282309952418
.    Trial1    0.270017    -3653.55290772853732
.    Trial2    0.548846    -3653.55283205753312
. Quadratic    0.282082    -3653.55290788030516    -3653.55290788363345

--------------------------------------------------------------------------------
  Iter                              Commutator    Free_energy(A=E-TS)     DeltaA
#    4                          0.000007707885   -3653.55290788030516  -8.48E-05

Step                       =       0.282081758260
Energy                     =   -3653.552869848874
Entropy (-TS)              =      -0.000038031114
Free energy (A=E-TS)       =   -3653.552907880305
Est. 0K Energy 0.5*(E+A)   =   -3653.552888864589
Residual Non-orthogonality =       0.000000000000
Residual N_electrons       =      -0.000000000317

Spin          Integrated_Ne            Fermi_level     Delta_Fermi_level
   1      2560.000000001352         0.234299304163              3.10E-04

                           Spin 1          
[...]
 C   160 -- C   385       -0.09      5.37000
 C   159 -- C   384       -0.09      5.37000
 C   158 -- C   383       -0.09      5.37000
 C   157 -- C   382       -0.09      5.37000
 C   156 -- C   381       -0.09      5.37000
 C   155 -- C   355       -0.09      5.37000
 C   154 -- C   354       -0.09      5.37000
 C   153 -- C   353       -0.09      5.37000
 C   152 -- C   352       -0.09      5.37000
 C   151 -- C   351       -0.09      5.37000
 C   140 -- C   335       -0.09      5.37000
 C   139 -- C   334       -0.09      5.37000
 C   138 -- C   333       -0.09      5.37000
 C   137 -- C   332       -0.09      5.37000
 C   136 -- C   331       -0.09      5.37000
 C   115 -- C   325       -0.09      5.37000
 C   114 -- C   324       -0.09      5.37000
 C   113 -- C   323       -0.09      5.37000
 C   112 -- C   322       -0.09      5.37000
 C   111 -- C   321       -0.09      5.37000
 C   219 -- C   569       -0.09      5.37202
 C   218 -- C   568       -0.09      5.37202
 C   217 -- C   567       -0.09      5.37202
 C   216 -- C   566       -0.09      5.37202
 C   250 -- C   540       -0.09      5.37202
 C   249 -- C   539       -0.09      5.37202
 C   248 -- C   538       -0.09      5.37202
 C   247 -- C   537       -0.09      5.37202
 C   246 -- C   536       -0.09      5.37202
 C   220 -- C   570       -0.09      5.37202
 C   285 -- C   580       -0.09      5.37202
 C   284 -- C   579       -0.09      5.37202
 C   283 -- C   578       -0.09      5.37202
 C   282 -- C   577       -0.09      5.37202
 C   281 -- C   576       -0.09      5.37202
 C   260 -- C   605       -0.09      5.37202
 C   259 -- C   604       -0.09      5.37202
 C   258 -- C   603       -0.09      5.37202
 C   257 -- C   602       -0.09      5.37202
 C   256 -- C   601       -0.09      5.37202
 C   220 -- C   515       -0.09      5.37202
 C   219 -- C   514       -0.09      5.37202
 C   218 -- C   513       -0.09      5.37202
 C   217 -- C   512       -0.09      5.37202
 C   216 -- C   511       -0.09      5.37202
 C   195 -- C   540       -0.09      5.37202
 C   195 -- C   500       -0.09      5.37202
 C   194 -- C   539       -0.09      5.37202
 C   194 -- C   499       -0.09      5.37202
 C   193 -- C   538       -0.09      5.37202
 C   193 -- C   498       -0.09      5.37202
 C   192 -- C   537       -0.09      5.37202
 C   192 -- C   497       -0.09      5.37202
 C   191 -- C   536       -0.09      5.37202
 C   191 -- C   496       -0.09      5.37202
 C   180 -- C   515       -0.09      5.37202
 C   179 -- C   514       -0.09      5.37202
 C   178 -- C   513       -0.09      5.37202
 C   177 -- C   512       -0.09      5.37202
 C   176 -- C   511       -0.09      5.37202
 C    11 -- C   331       -0.09      5.37202
 C   205 -- C   550       -0.09      5.37202
 C   204 -- C   549       -0.09      5.37202
 C   203 -- C   548       -0.09      5.37202
 C   202 -- C   547       -0.09      5.37202
 C   201 -- C   546       -0.09      5.37202
 C    95 -- C   425       -0.09      5.37202
 C    95 -- C   365       -0.09      5.37202
 C    94 -- C   424       -0.09      5.37202
 C    94 -- C   364       -0.09      5.37202
 C    93 -- C   423       -0.09      5.37202
 C    93 -- C   363       -0.09      5.37202
 C    92 -- C   422       -0.09      5.37202
 C    92 -- C   362       -0.09      5.37202
 C    91 -- C   421       -0.09      5.37202
 C    91 -- C   361       -0.09      5.37202
 C    40 -- C   365       -0.09      5.37202
 C    39 -- C   364       -0.09      5.37202
 C    38 -- C   363       -0.09      5.37202
 C    37 -- C   362       -0.09      5.37202
 C    36 -- C   361       -0.09      5.37202
 C    15 -- C   335       -0.09      5.37202
 C    65 -- C   395       -0.09      5.37202
 C    65 -- C   345       -0.09      5.37202
 C    64 -- C   394       -0.09      5.37202
 C    64 -- C   344       -0.09      5.37202
 C    63 -- C   393       -0.09      5.37202
 C    30 -- C   355       -0.09      5.37202
 C    63 -- C   343       -0.09      5.37202
 C    62 -- C   392       -0.09      5.37202
 C    30 -- C   325       -0.09      5.37202
 C    14 -- C   334       -0.09      5.37202
 C    62 -- C   342       -0.09      5.37202
 C    61 -- C   391       -0.09      5.37202
 C    29 -- C   354       -0.09      5.37202
 C    61 -- C   341       -0.09      5.37202
 C    29 -- C   324       -0.09      5.37202
 C   260 -- C   550       -0.09      5.37202
 C   259 -- C   549       -0.09      5.37202
 C    28 -- C   353       -0.09      5.37202
 C   258 -- C   548       -0.09      5.37202
 C   257 -- C   547       -0.09      5.37202
 C   256 -- C   546       -0.09      5.37202
 C    28 -- C   323       -0.09      5.37202
 C    27 -- C   352       -0.09      5.37202
 C    13 -- C   333       -0.09      5.37202
 C    27 -- C   322       -0.09      5.37202
 C   120 -- C   395       -0.09      5.37202
 C    26 -- C   351       -0.09      5.37202
 C   119 -- C   394       -0.09      5.37202
 C   118 -- C   393       -0.09      5.37202
 C    55 -- C   335       -0.09      5.37202
 C   117 -- C   392       -0.09      5.37202
 C    26 -- C   321       -0.09      5.37202
 C   116 -- C   391       -0.09      5.37202
 C    54 -- C   334       -0.09      5.37202
 C    12 -- C   332       -0.09      5.37202
 C    53 -- C   333       -0.09      5.37202
 C   230 -- C   580       -0.09      5.37202
 C   230 -- C   525       -0.09      5.37202
 C   229 -- C   579       -0.09      5.37202
 C   229 -- C   524       -0.09      5.37202
 C   228 -- C   578       -0.09      5.37202
 C    52 -- C   332       -0.09      5.37202
 C   228 -- C   523       -0.09      5.37202
 C   227 -- C   577       -0.09      5.37202
 C   227 -- C   522       -0.09      5.37202
 C   226 -- C   576       -0.09      5.37202
 C   226 -- C   521       -0.09      5.37202
 C    51 -- C   331       -0.09      5.37202
 C    23 -- C   478       -0.09      5.37202
 C    49 -- C   469       -0.09      5.37202
 C    48 -- C   468       -0.09      5.37202
 C    47 -- C   467       -0.09      5.37202
 C    22 -- C   477       -0.09      5.37202
 C    46 -- C   466       -0.09      5.37202
 C    21 -- C   476       -0.09      5.37202
 C    85 -- C   355       -0.09      5.37202
 C    84 -- C   354       -0.09      5.37202
 C    83 -- C   353       -0.09      5.37202
 C    82 -- C   352       -0.09      5.37202
 C    81 -- C   351       -0.09      5.37202
 C    55 -- C   385       -0.09      5.37202
 C    54 -- C   384       -0.09      5.37202
 C    25 -- C   480       -0.09      5.37202
 C    53 -- C   383       -0.09      5.37202
 C    52 -- C   382       -0.09      5.37202
 C    51 -- C   381       -0.09      5.37202
 C    24 -- C   479       -0.09      5.37202
 C    50 -- C   470       -0.09      5.37202
 C    24 -- C   449       -0.09      5.37202
 C     6 -- C   416       -0.09      5.37202
 C    23 -- C   448       -0.09      5.37202
 C    22 -- C   447       -0.09      5.37202
 C    10 -- C   470       -0.09      5.37202
 C     5 -- C   450       -0.09      5.37202
 C    21 -- C   446       -0.09      5.37202
 C    10 -- C   420       -0.09      5.37202
 C     9 -- C   469       -0.09      5.37202
 C     9 -- C   419       -0.09      5.37202
 C     8 -- C   468       -0.09      5.37202
 C     4 -- C   449       -0.09      5.37202
 C   150 -- C   440       -0.09      5.37202
 C   149 -- C   439       -0.09      5.37202
 C   148 -- C   438       -0.09      5.37202
 C   147 -- C   437       -0.09      5.37202
 C     8 -- C   418       -0.09      5.37202
 C   146 -- C   436       -0.09      5.37202
 C     2 -- C   447       -0.09      5.37202
 C   135 -- C   460       -0.09      5.37202
 C     7 -- C   467       -0.09      5.37202
 C   134 -- C   459       -0.09      5.37202
 C   133 -- C   458       -0.09      5.37202
 C   132 -- C   457       -0.09      5.37202
 C   131 -- C   456       -0.09      5.37202
 C     7 -- C   417       -0.09      5.37202
 C     1 -- C   446       -0.09      5.37202
 C     6 -- C   466       -0.09      5.37202
 C    25 -- C   450       -0.09      5.37202
 C     3 -- C   448       -0.09      5.37202
 C   106 -- C   436       -0.09      5.37202
 C   106 -- C   376       -0.09      5.37202
 C    80 -- C   410       -0.09      5.37202
 C    79 -- C   409       -0.09      5.37202
 C    78 -- C   408       -0.09      5.37202
 C    77 -- C   407       -0.09      5.37202
 C    76 -- C   406       -0.09      5.37202
 C   135 -- C   410       -0.09      5.37202
 C   134 -- C   409       -0.09      5.37202
 C   133 -- C   408       -0.09      5.37202
 C   132 -- C   407       -0.09      5.37202
 C   131 -- C   406       -0.09      5.37202
 C   110 -- C   440       -0.09      5.37202
 C   110 -- C   380       -0.09      5.37202
 C   109 -- C   439       -0.09      5.37202
 C   109 -- C   379       -0.09      5.37202
 C   108 -- C   438       -0.09      5.37202
 C   108 -- C   378       -0.09      5.37202
 C   107 -- C   437       -0.09      5.37202
 C   107 -- C   377       -0.09      5.37202
 C   215 -- C   635       -0.09      5.38000
 C   214 -- C   634       -0.09      5.38000
 C   213 -- C   633       -0.09      5.38000
 C   212 -- C   632       -0.09      5.38000
 C   211 -- C   631       -0.09      5.38000
 C   190 -- C   620       -0.09      5.38000
 C   189 -- C   619       -0.09      5.38000
 C   188 -- C   618       -0.09      5.38000
 C   187 -- C   617       -0.09      5.38000
 C   186 -- C   616       -0.09      5.38000
 C   175 -- C   595       -0.09      5.38000
 C   174 -- C   594       -0.09      5.38000
 C   173 -- C   593       -0.09      5.38000
 C   172 -- C   592       -0.09      5.38000
 C   171 -- C   591       -0.09      5.38000
 C   245 -- C   640       -0.09      5.38000
 C   244 -- C   639       -0.09      5.38000
 C   243 -- C   638       -0.09      5.38000
 C   242 -- C   637       -0.09      5.38000
 C   241 -- C   636       -0.09      5.38000
==================================================


=================== Orbital energy and occupancy information ===================

      Total number of orbitals:    2560
        Occupancy sum (kernel):    1279.999999999
   Occupancy sum (eigenvalues):    1279.999999999
                 HOMO-LUMO gap:       0.062282800 Eh
                 Mid-gap level:       0.274708581 Eh

                        Orbital | Energy (Eh) | Occupancy
                            1    -0.451267680   1.0000000
                        .......   ...........   .........
                         1271     0.238174980   0.9999873
                         1272     0.238174980   0.9999873
                         1273     0.238644434   0.9999852
                         1274     0.238644434   0.9999852
                         1275     0.242547946   0.9999494
                         1276     0.242547946   0.9999494
                         1277     0.242989613   0.9999418
                         1278     0.242989614   0.9999418
                         1279     0.243143130   0.9999389
                         1280     0.243567181   0.9999301
                        ....... -- gap at 0K -- .........
                         1281     0.305849981   0.0000410
                         1282     0.305849981   0.0000410
                         1283     0.306103519   0.0000379
                         1284     0.306103519   0.0000379
                         1285     0.306947210   0.0000291
                         1286     0.306947210   0.0000291
                         1287     0.307218587   0.0000267
                         1288     0.307218587   0.0000267
                         1289     0.307678068   0.0000232
                         1290     0.307956134   0.0000212
                        .......   ...........   .........
                         2560     1.161817194   0.0000000

================================================================================

===================== Writing canonical molecular orbitals =====================
| Orbital  Energy (eV)  Norm     |
| HOMO      6.62780025  1.000000 | Writing "3.21716088_GO_manual_4x64graphite_HOMO.cube" ... done
Writing "3.21716088_GO_manual_4x64graphite_HOMO.dx" ... done
| LUMO      8.32260147  1.000000 | Writing "3.21716088_GO_manual_4x64graphite_LUMO.cube" ... done
Writing "3.21716088_GO_manual_4x64graphite_LUMO.dx" ... done
================================================================================
 
===================== Density of States (DOS) calculation ======================
Writing "3.21716088_GO_manual_4x64graphite_DOS.txt" ...  done
================================================================================
 
Writing bands to file "3.21716088_GO_manual_4x64graphite.val_bands" ... done
 
================ Projected Density of States (pDOS) calculation ================
 
Constructing AM resolved functions  ...... done
Writing NGWF plot files in formats: CUBE DX ...  done
 
Performing overlap integrals ...  done
 
Computing pDOS weights ...  done
 
All bands spilling parameter =   3.94 %
Occupancy-weighted spilling parameter =   0.83 %
 
 => Outputting data for OptaDOS <=
 
Writing pDOS weights to file "3.21716088_GO_manual_4x64graphite.val_pdos_bin" ... done
 
Writing band gradients to file "3.21716088_GO_manual_4x64graphite.val_dome_bin" ... done
 
Writing Castep output cell file to "3.21716088_GO_manual_4x64graphite-out.cell" ... done
 
 => Computing Gaussian smeared pDOS <= 
Writing "3.21716088_GO_manual_4x64graphite_PDOS.txt" ...  done
 
 => Computing Occupancy-weighted Gaussian smeared pDOS <= 
Writing "3.21716088_GO_manual_4x64graphite_occ_PDOS.txt" ...  done
  => Band centres: 
 S band centre of group 1:  -13.850300 eV
 P band centre of group 1:   -6.750306 eV
  Band centres done. <=
  => Integrated number of electrons in each AM band: 
 S num electrons of group 1:  574.473743
 P num electrons of group 1: 1964.375762
  Integrated number of electrons done. <=
================================================================================

------------------------------ TIMING INFORMATION ------------------------------
AVERAGE TIME:    4419.174s on     40 node(s)                                    
TOTAL TIME:      4419.174s on     40 node(s)                                    
================= AVERAGE TIMINGS FROM ALL NODES (CUMULATIVE) ==================
|| TAG                                    #calls    cpu time   %total  Gflops ||
|| work_imbalance                       :     1        0.00s   0.000%  ------ ||
|| paw_tcore_hartree_on_grid            :     1        0.00s   0.000%  ------ ||
|| paw_tcore_density                    :     1        0.01s   0.000%  ------ ||
|| paw_sphere_density_on_grid           :     1        0.01s   0.000%  ------ ||
|| sparse_set_to_garbage                :   183        0.03s   0.001%  ------ ||
|| paw_dij_hartree                      :   389        0.05s   0.001%  ------ ||
|| pseudo_make_structure_factor         :     1        0.05s   0.001%  ------ ||
|| basis_extract_function_from_box      :  2048        0.09s   0.002%  ------ ||
|| paw_species_calc_proj_prec_mat       :     1        0.12s   0.003%  ------ ||
|| paw_dataset_init                     :     1        0.15s   0.003%  ------ ||
|| density_init_guess_real              :     1        0.19s   0.004%  ------ ||
|| ngwfs_initialise_from_radial         :     2        0.66s   0.015%  ------ ||
|| restart_kernel_write                 :    17        0.93s   0.021%  ------ ||
|| sparse_init                          :     1        0.96s   0.022%  ------ ||
|| hartree_on_grid                      :   292        1.14s   0.026%  ------ ||
|| dense_normal_eigensolve              :     1        1.23s   0.028%  ------ ||
|| ewald_calculate_energy               :     1        2.37s   0.054%  ------ ||
|| projectors_init_fftbox_recip         :   161        3.13s   0.071%  ------ ||
|| fourier_apply_box_pair               :  3040        5.02s   0.114% 561.404 ||
|| basis_copy_function_to_box           : 27648        5.95s   0.135%  ------ ||
|| augmentation_screen_dij              :   299        6.49s   0.147%  ------ ||
|| sw_init                              :     1        6.74s   0.152%  ------ ||
|| sparse_embed_hotelling_invert_embed  :    31        8.99s   0.203%  ------ ||
|| ngwf_gradient_coeffs                 :    16       12.82s   0.290%  ------ ||
|| fourier_apply_cell_backward          :  9023       14.95s   0.338%  67.842 ||
|| fourier_apply_cell_forward           :  8440       15.55s   0.352%  60.991 ||
|| cell_grid_extract_box_real           : 11708       16.56s   0.375%  ------ ||
|| sparse_trace                         :  3530       20.23s   0.458%  ------ ||
|| cell_grid_deposit_box_real           : 37552       24.42s   0.552%  ------ ||
|| paw_dij_xc                           :   389       31.43s   0.711%  ------ ||
|| aug_nonlocal_mat                     :   373       45.28s   1.025%  ------ ||
|| density_fftbox_deposit_to_cell       : 18688       49.05s   1.110%  ------ ||
|| eigenstates_pdos                     :     1       54.23s   1.227%  ------ ||
|| augmentation_density_on_grid         :   292       57.59s   1.303%  ------ ||
|| eigenstates_calculate                :     1       58.38s   1.321%  ------ ||
|| function_ops_brappd_ketppd           :    64       66.92s   1.514%  ------ ||
|| nlxc_vdw_energy                      :   582       67.62s   1.530%  ------ ||
|| hamiltonian_energy_components        :     4       68.21s   1.543%  ------ ||
|| projectors_func_ovlp_box             :    32       77.50s   1.754%  ------ ||
|| xc_energy_potential                  :   291       78.02s   1.766%  ------ ||
|| properties_calculate                 :     1      103.99s   2.353%  ------ ||
|| integrals_kinetic                    :    31      117.29s   2.654%  ------ ||
|| dense_eigensolve                     :   256      121.21s   2.743%  ------ ||
|| potential_apply_to_ngwf_batch        :   368      143.90s   3.256%  ------ ||
|| restart_ngwfs_tightbox_output        :    15      144.91s   3.279%  ------ ||
|| sparse_product                       :  3542      159.75s   3.615%  ------ ||
|| basis_dot_function_with_box          : 9.193M     246.51s   5.578%  ------ ||
|| fourier_apply_box                    : 86944      270.84s   6.129% 977.553 ||
|| edft_diag_ngwf_ham                   :   255      278.12s   6.293%  ------ ||
|| projectors_gradient_batch            :    64      296.51s   6.710%  ------ ||
|| integrals_locpot_mat_els_batch       :   368      349.80s   7.915%  ------ ||
|| density_fftbox_interpolate_multiply  : 18688      361.94s   8.190%  ------ ||
|| projectors_grad_precond_batch        :    64      438.42s   9.921%  ------ ||
|| density_batch_interp_deposit         :  1168      456.05s  10.320%  ------ ||
|| integrals_locpot_dbl_grid            :    92      495.60s  11.215%  ------ ||
|| edft_apply_smearing_operator         :   255      548.54s  12.413%  ------ ||
|| basis_add_function_to_box            : 25.88M     666.66s  15.086%  ------ ||
|| ngwf_gradient_build_batch            :    64      783.33s  17.726%  ------ ||
|| density_batch_row_sums               :  1168     1003.12s  22.699%  ------ ||
|| ngwf_gradient_batch                  :    64     1039.20s  23.516%  ------ ||
|| ngwf_gradient_lnv                    :    16     1077.25s  24.377%  ------ ||
|| density_on_dbl_grid                  :   292     1474.56s  33.367%  ------ ||
|| hamiltonian_lhxc_calculate           :   286     1582.44s  35.809%  ------ ||
|| edft_calculate                       :    16     2612.63s  59.120%  ------ ||
|| ngwf_cg_optimise                     :     1     4289.44s  97.064%  ------ ||
|| total_time                           :     1     4419.17s 100.000%  ------ ||
================================================================================
Overhead of generating timer report: 
- 0 ms averaging over threads,
- 5 ms ensuring consistency across MPI ranks,
- 0 ms printing in order.

Job completed: 25-02-2020 12:52 (-0000)

