 +---------------------------------------------------------------+
 |                                                               |
 |        ####### #     # ####### ####### ####### ######         |
 |        #     # ##    # #          #    #       #     #        |
 |        #     # # #   # #          #    #       #     #        |
 |        #     # #  #  # #####      #    #####   ######         |
 |        #     # #   # # #          #    #       #              |
 |        #     # #    ## #          #    #       #              |
 |        ####### #     # #######    #    ####### #              |
 |                                                               |
 |        Linear-Scaling Ab Initio Total Energy Program          |
 |                                                               |
 |          Release for academic collaborators of ODG            |
 |                                             Version 5.3.2.12  |
 |                                                               |
 +---------------------------------------------------------------+
 |                                                               |
 |  Authors:                                                     |
 |  Jacek Dziedzic, Peter D. Haynes, Nicholas D. M. Hine,        |
 |  Arash. A. Mostofi, Mike C. Payne and Chris-Kriton Skylaris   |
 |                                                               |
 |  Contributors:                                                |
 |  J. Aarons, L. Andrinopoulos, P. W. Avraam, R. A. Bell,       |
 |  A. Bhandari, G. A. Bramley, R. J. Charlton, S. J. Clark,     |
 |  R. J. Clements, G. C. Constantinescu, F. Corsetti,           |
 |  N. Corsini, O. Dieguez, S. M. M. Dubois, K. K. B. Duff,      |
 |  J. M. Escartin, A. Greco, H. Helal, Q. O. Hill, L. P. Lee,   |
 |  J.-H. Li, E. B. Linscott, G. Moynihan, D. D. O`Regan,        |
 |  O. K. Okan, M. J. S. Phipps, C. J. Pickard,                  |
 |  J. C. A. Prentice, M. I. J. Probert, L. E. Ratcliff,         |
 |  M. Robinson, A. Ruiz Serrano, J. S. Spencer, E. W. Tait,     |
 |  G. Teobaldi, D. Turban, V. Vitale, K. A. Wilkinson,          |
 |  C. Weber, J. C. Womack, N. Yeung and T. J. Zuehlsdorff       |
 |                                                               |
 |                                   Copyright (c) 2004-2020     |
 |                                                               |
 |  Please cite:                                                 |
 |  "Introducing ONETEP: Linear-scaling density functional       |
 |   simulations on parallel computers".                         |
 |   C.-K. Skylaris, P. D. Haynes, A. A. Mostofi, M. C. Payne.   |
 |   J. Chem. Phys. 122 084119 (2005).                           |
 |                                                               |
 |          in all publications arising from your use of ONETEP. |
 |                                                               |
 +---------------------------------------------------------------+
 |                                                               |
 |   ONETEP is based on developments described in the following  |
 |   publications:                                               |
 |                                                               |
 |  "Nonorthogonal generalized Wannier function pseudopotential  |
 |   plane-wave method".                                         |
 |   C.-K. Skylaris, A. A. Mostofi, P. D. Haynes, O. Dieguez,    |
 |   M. C. Payne.                                                |
 |   Phys. Rev. B 66 035119 (2002).                              |
 |                                                               |
 |  "Preconditioned iterative minimization for linear-scaling    |
 |   electronic structure calculations".                         |
 |   A. A. Mostofi, P. D. Haynes, C.-K. Skylaris, M. C. Payne.   |
 |   J. Chem. Phys. 119(17), pp.8842-8848 (2003).                |
 |                                                               |
 |  "Total-energy calculations on a real space grid with         |
 |   localized functions and a plane-wave basis".                |
 |   A. A. Mostofi, C.-K. Skylaris, P. D. Haynes, M. C. Payne.   |
 |   Comput. Phys. Commun. 147, pp.788-802 (2002).               |
 |                                                               |
 |  "Accurate kinetic energy evaluation in electronic structure  |
 |   calculations with localized functions on real space grids"  |
 |   C.-K. Skylaris, A. A. Mostofi, P. D. Haynes, C. J. Pickard, |
 |   M. C. Payne.                                                |
 |   Comput. Phys. Commun. 140, pp.315-322 (2001).               |
 |                                                               |
 |  "Accurate ionic forces and geometry optimization in linear-  |
 |   scaling density-functional theory with local orbitals"      |
 |   N. D. M. Hine, M. Robinson, P. D. Haynes, C.-K. Skylaris,   |
 |   M. C. Payne, and A. A. Mostofi.                             |
 |   Phys. Rev. B 83 195102 (2011).                              |
 |                                                               |
 +---------------------------------------------------------------+

Job started: 25-02-2020 14:09 (-0000)
 
Reading parameters from file "3.3808312_GO_manual_4x64graphite.dat" ...

WARNING: "cutoff_energy" not specified, but "psinc_spacing" specified.
         Using the latter to set the KE cutoff energy to  732.32021eV,
         thus *overriding* the default.

... done

If your calculation crashes here, before "Checking processes and threads..."
is displayed, then your stack size is insufficient.
If so, use "ulimit -s unlimited" at runtime.
You can disable this check with "check_stack_size F".

Checking processes and threads...
   Determining the default number of threads...
      No default threads set at compilation time: defaulting to 1.
      OpenMP library call suggests 4 threads.
      Hybrid MPI-OpenMP compilation detected.
      Number of MPI processes > 1.
      OMP_NUM_THREADS environment variable present and
      its value matches the one obtained from the OpenMP library call.
      Using this value as default.
      Default threads: 4
      Default applies to threads_max and threads_num_fftboxes.
      Settings in the input file override this default.
   ... done

   Running with 40 MPI processes.
   There are 10 MPI processes running on the same node as the root process.
   Each MPI process is using: 
               1 threads for simulation cell FFTs.
               1 threads for parallel FFT box operations.
               4 threads for loops over batched FFT box operations.
               4 threads in other parallel regions.
... done

Basic input checks...
Resetting ngwf_cg_rotate to TRUE for EDFT calculations
... done

Reading geometry and species blocks from file "3.3808312_GO_manual_4x64graphite.dat" ...
    
  PSINC grid spacing along a1 set to   0.511215680000a0 from input file.
  PSINC grid spacing along a2 set to   0.531284090000a0 from input file.
  PSINC grid spacing along a3 set to   0.507052230000a0 from input file.
  Number of PPD points along a3 set to 1.  This is 
  the default value, it may have been provided also in the input file.
... done
 Writing xyz coordinates to file "3.3808312_GO_manual_4x64graphite.xyz" ... done


--------------------------------------------------------------------------------
---------------------------------- INPUT FILE ----------------------------------
--------------------------------------------------------------------------------

task : singlepoint                                                              
do_properties : true                                                            
dx_format T                                                                     
edft T                                                                          
output_detail VERBOSE                                                           
write_xyz T                                                                     
xc_functional OPTB88                                                            
PSINC_SPACING 0.51121568 0.53128409 0.50705223                                  
paw T                                                                           
pdos_max_l = 2                                                                  
dos_smear  0.1 eV                                                               
popn_calculate T                                                                
PDOS_PSEUDOATOMIC T                                                             
PDOS_REDUCE_SWS F                                                               
PDOS_CONSTRUCT_BASIS F                                                          
PDOS_LOWDIN T                                                                   
PDOS_ORTH_ATOM_BLOCKS F                                                         
PDOS_LCAO_OPTIMIZE F                                                            
pdos_optados_output T                                                           
homo_plot 0                                                                     
lumo_plot 0                                                                     
homo_dens_plot -1                                                               
lumo_dens_plot -1                                                               
%BLOCK SPECIES                                                                  
C C 6 4 9.0                                                                     
%ENDBLOCK SPECIES                                                               
%BLOCK SPECIES_POT                                                              
C "~/pp/paw/c_pbe_abinit.paw"                                                   
%ENDBLOCK SPECIES_POT                                                           
%BLOCK SPECIES_ATOMIC_SET                                                       
C "SOLVE conf=2s2 2p2"                                                          
%ENDBLOCK SPECIES_ATOMIC_SET                                                    
%BLOCK LATTICE_CART                                                             
32.21  0.00  0.00                                                               
0.00 18.59  0.00                                                                
0.00  0.00 63.89                                                                
%ENDBLOCK LATTICE_CART                                                          
%BLOCK POSITIONS_ABS                                                            
C  0.00  0.00  3.19                                                             
C  0.00  0.00 15.97                                                             
C  0.00  0.00 28.75                                                             
C  0.00  0.00 41.53                                                             
C  0.00  0.00 54.31                                                             
C  0.00  4.65  3.19                                                             
C  0.00  4.65 15.97                                                             
C  0.00  4.65 28.75                                                             
C  0.00  4.65 41.53                                                             
C  0.00  4.65 54.31                                                             
C  4.03  2.32  3.19                                                             
C  4.03  2.32 15.97                                                             
C  4.03  2.32 28.75                                                             
C  4.03  2.32 41.53                                                             
C  4.03  2.32 54.31                                                             
C  8.05  0.00  3.19                                                             
C  8.05  0.00 15.97                                                             
C  8.05  0.00 28.75                                                             
C  8.05  0.00 41.53                                                             
C  8.05  0.00 54.31                                                             
C  0.00  9.30  3.19                                                             
C  0.00  9.30 15.97                                                             
C  0.00  9.30 28.75                                                             
C  0.00  9.30 41.53                                                             
C  0.00  9.30 54.31                                                             
C  4.03  6.97  3.19                                                             
C  4.03  6.97 15.97                                                             
C  4.03  6.97 28.75                                                             
C  4.03  6.97 41.53                                                             
C  4.03  6.97 54.31                                                             
C  8.05  4.65  3.19                                                             
C  8.05  4.65 15.97                                                             
C  8.05  4.65 28.75                                                             
C  8.05  4.65 41.53                                                             
C  8.05  4.65 54.31                                                             
C 12.08  2.32  3.19                                                             
C 12.08  2.32 15.97                                                             
C 12.08  2.32 28.75                                                             
C 12.08  2.32 41.53                                                             
C 12.08  2.32 54.31                                                             
C 16.10  0.00  3.19                                                             
C 16.10  0.00 15.97                                                             
C 16.10  0.00 28.75                                                             
C 16.10  0.00 41.53                                                             
C 16.10  0.00 54.31                                                             
C  0.00 13.95  3.19                                                             
C  0.00 13.95 15.97                                                             
C  0.00 13.95 28.75                                                             
C  0.00 13.95 41.53                                                             
C  0.00 13.95 54.31                                                             
C  4.03 11.62  3.19                                                             
C  4.03 11.62 15.97                                                             
C  4.03 11.62 28.75                                                             
C  4.03 11.62 41.53                                                             
C  4.03 11.62 54.31                                                             
C  8.05  9.30  3.19                                                             
C  8.05  9.30 15.97                                                             
C  8.05  9.30 28.75                                                             
C  8.05  9.30 41.53                                                             
C  8.05  9.30 54.31                                                             
C 12.08  6.97  3.19                                                             
C 12.08  6.97 15.97                                                             
C 12.08  6.97 28.75                                                             
C 12.08  6.97 41.53                                                             
C 12.08  6.97 54.31                                                             
C 16.10  4.65  3.19                                                             
C 16.10  4.65 15.97                                                             
C 16.10  4.65 28.75                                                             
C 16.10  4.65 41.53                                                             
C 16.10  4.65 54.31                                                             
C 20.13  2.32  3.19                                                             
C 20.13  2.32 15.97                                                             
C 20.13  2.32 28.75                                                             
C 20.13  2.32 41.53                                                             
C 20.13  2.32 54.31                                                             
C 24.16  0.00  3.19                                                             
C 24.16  0.00 15.97                                                             
C 24.16  0.00 28.75                                                             
C 24.16  0.00 41.53                                                             
C 24.16  0.00 54.31                                                             
C  4.03 16.27  3.19                                                             
C  4.03 16.27 15.97                                                             
C  4.03 16.27 28.75                                                             
C  4.03 16.27 41.53                                                             
C  4.03 16.27 54.31                                                             
C  8.05 13.95  3.19                                                             
C  8.05 13.95 15.97                                                             
C  8.05 13.95 28.75                                                             
C  8.05 13.95 41.53                                                             
C  8.05 13.95 54.31                                                             
C 12.08 11.62  3.19                                                             
C 12.08 11.62 15.97                                                             
C 12.08 11.62 28.75                                                             
C 12.08 11.62 41.53                                                             
C 12.08 11.62 54.31                                                             
C 16.10  9.30  3.19                                                             
C 16.10  9.30 15.97                                                             
C 16.10  9.30 28.75                                                             
C 16.10  9.30 41.53                                                             
C 16.10  9.30 54.31                                                             
C 20.13  6.97  3.19                                                             
C 20.13  6.97 15.97                                                             
C 20.13  6.97 28.75                                                             
C 20.13  6.97 41.53                                                             
C 20.13  6.97 54.31                                                             
C 24.16  4.65  3.19                                                             
C 24.16  4.65 15.97                                                             
C 24.16  4.65 28.75                                                             
C 24.16  4.65 41.53                                                             
C 24.16  4.65 54.31                                                             
C 28.18  2.32  3.19                                                             
C 28.18  2.32 15.97                                                             
C 28.18  2.32 28.75                                                             
C 28.18  2.32 41.53                                                             
C 28.18  2.32 54.31                                                             
C 12.08 16.27  3.19                                                             
C 12.08 16.27 15.97                                                             
C 12.08 16.27 28.75                                                             
C 12.08 16.27 41.53                                                             
C 12.08 16.27 54.31                                                             
C 16.10 13.95  3.19                                                             
C 16.10 13.95 15.97                                                             
C 16.10 13.95 28.75                                                             
C 16.10 13.95 41.53                                                             
C 16.10 13.95 54.31                                                             
C 20.13 11.62  3.19                                                             
C 20.13 11.62 15.97                                                             
C 20.13 11.62 28.75                                                             
C 20.13 11.62 41.53                                                             
C 20.13 11.62 54.31                                                             
C 24.16  9.30  3.19                                                             
C 24.16  9.30 15.97                                                             
C 24.16  9.30 28.75                                                             
C 24.16  9.30 41.53                                                             
C 24.16  9.30 54.31                                                             
C 28.18  6.97  3.19                                                             
C 28.18  6.97 15.97                                                             
C 28.18  6.97 28.75                                                             
C 28.18  6.97 41.53                                                             
C 28.18  6.97 54.31                                                             
C 20.13 16.27  3.19                                                             
C 20.13 16.27 15.97                                                             
C 20.13 16.27 28.75                                                             
C 20.13 16.27 41.53                                                             
C 20.13 16.27 54.31                                                             
C 24.16 13.95  3.19                                                             
C 24.16 13.95 15.97                                                             
C 24.16 13.95 28.75                                                             
C 24.16 13.95 41.53                                                             
C 24.16 13.95 54.31                                                             
C 28.18 11.62  3.19                                                             
C 28.18 11.62 15.97                                                             
C 28.18 11.62 28.75                                                             
C 28.18 11.62 41.53                                                             
C 28.18 11.62 54.31                                                             
C 28.18 16.27  3.19                                                             
C 28.18 16.27 15.97                                                             
C 28.18 16.27 28.75                                                             
C 28.18 16.27 41.53                                                             
C 28.18 16.27 54.31                                                             
C  0.00  0.00  9.58                                                             
C  0.00  0.00 22.36                                                             
C  0.00  0.00 35.14                                                             
C  0.00  0.00 47.92                                                             
C  0.00  0.00 60.69                                                             
C  0.00  4.65  9.58                                                             
C  0.00  4.65 22.36                                                             
C  0.00  4.65 35.14                                                             
C  0.00  4.65 47.92                                                             
C  0.00  4.65 60.69                                                             
C  4.03  2.32  9.58                                                             
C  4.03  2.32 22.36                                                             
C  4.03  2.32 35.14                                                             
C  4.03  2.32 47.92                                                             
C  4.03  2.32 60.69                                                             
C  8.05  0.00  9.58                                                             
C  8.05  0.00 22.36                                                             
C  8.05  0.00 35.14                                                             
C  8.05  0.00 47.92                                                             
C  8.05  0.00 60.69                                                             
C  0.00  9.30  9.58                                                             
C  0.00  9.30 22.36                                                             
C  0.00  9.30 35.14                                                             
C  0.00  9.30 47.92                                                             
C  0.00  9.30 60.69                                                             
C  4.03  6.97  9.58                                                             
C  4.03  6.97 22.36                                                             
C  4.03  6.97 35.14                                                             
C  4.03  6.97 47.92                                                             
C  4.03  6.97 60.69                                                             
C  8.05  4.65  9.58                                                             
C  8.05  4.65 22.36                                                             
C  8.05  4.65 35.14                                                             
C  8.05  4.65 47.92                                                             
C  8.05  4.65 60.69                                                             
C 12.08  2.32  9.58                                                             
C 12.08  2.32 22.36                                                             
C 12.08  2.32 35.14                                                             
C 12.08  2.32 47.92                                                             
C 12.08  2.32 60.69                                                             
C 16.10  0.00  9.58                                                             
C 16.10  0.00 22.36                                                             
C 16.10  0.00 35.14                                                             
C 16.10  0.00 47.92                                                             
C 16.10  0.00 60.69                                                             
C  0.00 13.95  9.58                                                             
C  0.00 13.95 22.36                                                             
C  0.00 13.95 35.14                                                             
C  0.00 13.95 47.92                                                             
C  0.00 13.95 60.69                                                             
C  4.03 11.62  9.58                                                             
C  4.03 11.62 22.36                                                             
C  4.03 11.62 35.14                                                             
C  4.03 11.62 47.92                                                             
C  4.03 11.62 60.69                                                             
C  8.05  9.30  9.58                                                             
C  8.05  9.30 22.36                                                             
C  8.05  9.30 35.14                                                             
C  8.05  9.30 47.92                                                             
C  8.05  9.30 60.69                                                             
C 12.08  6.97  9.58                                                             
C 12.08  6.97 22.36                                                             
C 12.08  6.97 35.14                                                             
C 12.08  6.97 47.92                                                             
C 12.08  6.97 60.69                                                             
C 16.10  4.65  9.58                                                             
C 16.10  4.65 22.36                                                             
C 16.10  4.65 35.14                                                             
C 16.10  4.65 47.92                                                             
C 16.10  4.65 60.69                                                             
C 20.13  2.32  9.58                                                             
C 20.13  2.32 22.36                                                             
C 20.13  2.32 35.14                                                             
C 20.13  2.32 47.92                                                             
C 20.13  2.32 60.69                                                             
C 24.16  0.00  9.58                                                             
C 24.16  0.00 22.36                                                             
C 24.16  0.00 35.14                                                             
C 24.16  0.00 47.92                                                             
C 24.16  0.00 60.69                                                             
C  4.03 16.27  9.58                                                             
C  4.03 16.27 22.36                                                             
C  4.03 16.27 35.14                                                             
C  4.03 16.27 47.92                                                             
C  4.03 16.27 60.69                                                             
C  8.05 13.95  9.58                                                             
C  8.05 13.95 22.36                                                             
C  8.05 13.95 35.14                                                             
C  8.05 13.95 47.92                                                             
C  8.05 13.95 60.69                                                             
C 12.08 11.62  9.58                                                             
C 12.08 11.62 22.36                                                             
C 12.08 11.62 35.14                                                             
C 12.08 11.62 47.92                                                             
C 12.08 11.62 60.69                                                             
C 16.10  9.30  9.58                                                             
C 16.10  9.30 22.36                                                             
C 16.10  9.30 35.14                                                             
C 16.10  9.30 47.92                                                             
C 16.10  9.30 60.69                                                             
C 20.13  6.97  9.58                                                             
C 20.13  6.97 22.36                                                             
C 20.13  6.97 35.14                                                             
C 20.13  6.97 47.92                                                             
C 20.13  6.97 60.69                                                             
C 24.16  4.65  9.58                                                             
C 24.16  4.65 22.36                                                             
C 24.16  4.65 35.14                                                             
C 24.16  4.65 47.92                                                             
C 24.16  4.65 60.69                                                             
C 28.18  2.32  9.58                                                             
C 28.18  2.32 22.36                                                             
C 28.18  2.32 35.14                                                             
C 28.18  2.32 47.92                                                             
C 28.18  2.32 60.69                                                             
C 12.08 16.27  9.58                                                             
C 12.08 16.27 22.36                                                             
C 12.08 16.27 35.14                                                             
C 12.08 16.27 47.92                                                             
C 12.08 16.27 60.69                                                             
C 16.10 13.95  9.58                                                             
C 16.10 13.95 22.36                                                             
C 16.10 13.95 35.14                                                             
C 16.10 13.95 47.92                                                             
C 16.10 13.95 60.69                                                             
C 20.13 11.62  9.58                                                             
C 20.13 11.62 22.36                                                             
C 20.13 11.62 35.14                                                             
C 20.13 11.62 47.92                                                             
C 20.13 11.62 60.69                                                             
C 24.16  9.30  9.58                                                             
C 24.16  9.30 22.36                                                             
C 24.16  9.30 35.14                                                             
C 24.16  9.30 47.92                                                             
C 24.16  9.30 60.69                                                             
C 28.18  6.97  9.58                                                             
C 28.18  6.97 22.36                                                             
C 28.18  6.97 35.14                                                             
C 28.18  6.97 47.92                                                             
C 28.18  6.97 60.69                                                             
C 20.13 16.27  9.58                                                             
C 20.13 16.27 22.36                                                             
C 20.13 16.27 35.14                                                             
C 20.13 16.27 47.92                                                             
C 20.13 16.27 60.69                                                             
C 24.16 13.95  9.58                                                             
C 24.16 13.95 22.36                                                             
C 24.16 13.95 35.14                                                             
C 24.16 13.95 47.92                                                             
C 24.16 13.95 60.69                                                             
C 28.18 11.62  9.58                                                             
C 28.18 11.62 22.36                                                             
C 28.18 11.62 35.14                                                             
C 28.18 11.62 47.92                                                             
C 28.18 11.62 60.69                                                             
C 28.18 16.27  9.58                                                             
C 28.18 16.27 22.36                                                             
C 28.18 16.27 35.14                                                             
C 28.18 16.27 47.92                                                             
C 28.18 16.27 60.69                                                             
C  1.34  2.32  3.19                                                             
C  1.34  2.32 15.97                                                             
C  1.34  2.32 28.75                                                             
C  1.34  2.32 41.53                                                             
C  1.34  2.32 54.31                                                             
C  5.37  0.00  3.19                                                             
C  5.37  0.00 15.97                                                             
C  5.37  0.00 28.75                                                             
C  5.37  0.00 41.53                                                             
C  5.37  0.00 54.31                                                             
C  1.34  6.97  3.19                                                             
C  1.34  6.97 15.97                                                             
C  1.34  6.97 28.75                                                             
C  1.34  6.97 41.53                                                             
C  1.34  6.97 54.31                                                             
C  5.37  4.65  3.19                                                             
C  5.37  4.65 15.97                                                             
C  5.37  4.65 28.75                                                             
C  5.37  4.65 41.53                                                             
C  5.37  4.65 54.31                                                             
C  9.39  2.32  3.19                                                             
C  9.39  2.32 15.97                                                             
C  9.39  2.32 28.75                                                             
C  9.39  2.32 41.53                                                             
C  9.39  2.32 54.31                                                             
C 13.42  0.00  3.19                                                             
C 13.42  0.00 15.97                                                             
C 13.42  0.00 28.75                                                             
C 13.42  0.00 41.53                                                             
C 13.42  0.00 54.31                                                             
C  1.34 11.62  3.19                                                             
C  1.34 11.62 15.97                                                             
C  1.34 11.62 28.75                                                             
C  1.34 11.62 41.53                                                             
C  1.34 11.62 54.31                                                             
C  5.37  9.30  3.19                                                             
C  5.37  9.30 15.97                                                             
C  5.37  9.30 28.75                                                             
C  5.37  9.30 41.53                                                             
C  5.37  9.30 54.31                                                             
C  9.39  6.97  3.19                                                             
C  9.39  6.97 15.97                                                             
C  9.39  6.97 28.75                                                             
C  9.39  6.97 41.53                                                             
C  9.39  6.97 54.31                                                             
C 13.42  4.65  3.19                                                             
C 13.42  4.65 15.97                                                             
C 13.42  4.65 28.75                                                             
C 13.42  4.65 41.53                                                             
C 13.42  4.65 54.31                                                             
C 17.45  2.32  3.19                                                             
C 17.45  2.32 15.97                                                             
C 17.45  2.32 28.75                                                             
C 17.45  2.32 41.53                                                             
C 17.45  2.32 54.31                                                             
C 21.47  0.00  3.19                                                             
C 21.47  0.00 15.97                                                             
C 21.47  0.00 28.75                                                             
C 21.47  0.00 41.53                                                             
C 21.47  0.00 54.31                                                             
C  1.34 16.27  3.19                                                             
C  1.34 16.27 15.97                                                             
C  1.34 16.27 28.75                                                             
C  1.34 16.27 41.53                                                             
C  1.34 16.27 54.31                                                             
C  5.37 13.95  3.19                                                             
C  5.37 13.95 15.97                                                             
C  5.37 13.95 28.75                                                             
C  5.37 13.95 41.53                                                             
C  5.37 13.95 54.31                                                             
C  9.39 11.62  3.19                                                             
C  9.39 11.62 15.97                                                             
C  9.39 11.62 28.75                                                             
C  9.39 11.62 41.53                                                             
C  9.39 11.62 54.31                                                             
C 13.42  9.30  3.19                                                             
C 13.42  9.30 15.97                                                             
C 13.42  9.30 28.75                                                             
C 13.42  9.30 41.53                                                             
C 13.42  9.30 54.31                                                             
C 17.45  6.97  3.19                                                             
C 17.45  6.97 15.97                                                             
C 17.45  6.97 28.75                                                             
C 17.45  6.97 41.53                                                             
C 17.45  6.97 54.31                                                             
C 21.47  4.65  3.19                                                             
C 21.47  4.65 15.97                                                             
C 21.47  4.65 28.75                                                             
C 21.47  4.65 41.53                                                             
C 21.47  4.65 54.31                                                             
C 25.50  2.32  3.19                                                             
C 25.50  2.32 15.97                                                             
C 25.50  2.32 28.75                                                             
C 25.50  2.32 41.53                                                             
C 25.50  2.32 54.31                                                             
C 29.52  0.00  3.19                                                             
C 29.52  0.00 15.97                                                             
C 29.52  0.00 28.75                                                             
C 29.52  0.00 41.53                                                             
C 29.52  0.00 54.31                                                             
C  9.39 16.27  3.19                                                             
C  9.39 16.27 15.97                                                             
C  9.39 16.27 28.75                                                             
C  9.39 16.27 41.53                                                             
C  9.39 16.27 54.31                                                             
C 13.42 13.95  3.19                                                             
C 13.42 13.95 15.97                                                             
C 13.42 13.95 28.75                                                             
C 13.42 13.95 41.53                                                             
C 13.42 13.95 54.31                                                             
C 17.45 11.62  3.19                                                             
C 17.45 11.62 15.97                                                             
C 17.45 11.62 28.75                                                             
C 17.45 11.62 41.53                                                             
C 17.45 11.62 54.31                                                             
C 21.47  9.30  3.19                                                             
C 21.47  9.30 15.97                                                             
C 21.47  9.30 28.75                                                             
C 21.47  9.30 41.53                                                             
C 21.47  9.30 54.31                                                             
C 25.50  6.97  3.19                                                             
C 25.50  6.97 15.97                                                             
C 25.50  6.97 28.75                                                             
C 25.50  6.97 41.53                                                             
C 25.50  6.97 54.31                                                             
C 29.52  4.65  3.19                                                             
C 29.52  4.65 15.97                                                             
C 29.52  4.65 28.75                                                             
C 29.52  4.65 41.53                                                             
C 29.52  4.65 54.31                                                             
C 17.45 16.27  3.19                                                             
C 17.45 16.27 15.97                                                             
C 17.45 16.27 28.75                                                             
C 17.45 16.27 41.53                                                             
C 17.45 16.27 54.31                                                             
C 21.47 13.95  3.19                                                             
C 21.47 13.95 15.97                                                             
C 21.47 13.95 28.75                                                             
C 21.47 13.95 41.53                                                             
C 21.47 13.95 54.31                                                             
C 25.50 11.62  3.19                                                             
C 25.50 11.62 15.97                                                             
C 25.50 11.62 28.75                                                             
C 25.50 11.62 41.53                                                             
C 25.50 11.62 54.31                                                             
C 29.52  9.30  3.19                                                             
C 29.52  9.30 15.97                                                             
C 29.52  9.30 28.75                                                             
C 29.52  9.30 41.53                                                             
C 29.52  9.30 54.31                                                             
C 25.50 16.27  3.19                                                             
C 25.50 16.27 15.97                                                             
C 25.50 16.27 28.75                                                             
C 25.50 16.27 41.53                                                             
C 25.50 16.27 54.31                                                             
C 29.52 13.95  3.19                                                             
C 29.52 13.95 15.97                                                             
C 29.52 13.95 28.75                                                             
C 29.52 13.95 41.53                                                             
C 29.52 13.95 54.31                                                             
C  2.68  0.00  9.58                                                             
C  2.68  0.00 22.36                                                             
C  2.68  0.00 35.14                                                             
C  2.68  0.00 47.92                                                             
C  2.68  0.00 60.69                                                             
C  2.68  4.65  9.58                                                             
C  2.68  4.65 22.36                                                             
C  2.68  4.65 35.14                                                             
C  2.68  4.65 47.92                                                             
C  2.68  4.65 60.69                                                             
C  6.71  2.32  9.58                                                             
C  6.71  2.32 22.36                                                             
C  6.71  2.32 35.14                                                             
C  6.71  2.32 47.92                                                             
C  6.71  2.32 60.69                                                             
C 10.74  0.00  9.58                                                             
C 10.74  0.00 22.36                                                             
C 10.74  0.00 35.14                                                             
C 10.74  0.00 47.92                                                             
C 10.74  0.00 60.69                                                             
C  2.68  9.30  9.58                                                             
C  2.68  9.30 22.36                                                             
C  2.68  9.30 35.14                                                             
C  2.68  9.30 47.92                                                             
C  2.68  9.30 60.69                                                             
C  6.71  6.97  9.58                                                             
C  6.71  6.97 22.36                                                             
C  6.71  6.97 35.14                                                             
C  6.71  6.97 47.92                                                             
C  6.71  6.97 60.69                                                             
C 10.74  4.65  9.58                                                             
C 10.74  4.65 22.36                                                             
C 10.74  4.65 35.14                                                             
C 10.74  4.65 47.92                                                             
C 10.74  4.65 60.69                                                             
C 14.76  2.32  9.58                                                             
C 14.76  2.32 22.36                                                             
C 14.76  2.32 35.14                                                             
C 14.76  2.32 47.92                                                             
C 14.76  2.32 60.69                                                             
C 18.79  0.00  9.58                                                             
C 18.79  0.00 22.36                                                             
C 18.79  0.00 35.14                                                             
C 18.79  0.00 47.92                                                             
C 18.79  0.00 60.69                                                             
C  2.68 13.95  9.58                                                             
C  2.68 13.95 22.36                                                             
C  2.68 13.95 35.14                                                             
C  2.68 13.95 47.92                                                             
C  2.68 13.95 60.69                                                             
C  6.71 11.62  9.58                                                             
C  6.71 11.62 22.36                                                             
C  6.71 11.62 35.14                                                             
C  6.71 11.62 47.92                                                             
C  6.71 11.62 60.69                                                             
C 10.74  9.30  9.58                                                             
C 10.74  9.30 22.36                                                             
C 10.74  9.30 35.14                                                             
C 10.74  9.30 47.92                                                             
C 10.74  9.30 60.69                                                             
C 14.76  6.97  9.58                                                             
C 14.76  6.97 22.36                                                             
C 14.76  6.97 35.14                                                             
C 14.76  6.97 47.92                                                             
C 14.76  6.97 60.69                                                             
C 18.79  4.65  9.58                                                             
C 18.79  4.65 22.36                                                             
C 18.79  4.65 35.14                                                             
C 18.79  4.65 47.92                                                             
C 18.79  4.65 60.69                                                             
C 22.81  2.32  9.58                                                             
C 22.81  2.32 22.36                                                             
C 22.81  2.32 35.14                                                             
C 22.81  2.32 47.92                                                             
C 22.81  2.32 60.69                                                             
C 26.84  0.00  9.58                                                             
C 26.84  0.00 22.36                                                             
C 26.84  0.00 35.14                                                             
C 26.84  0.00 47.92                                                             
C 26.84  0.00 60.69                                                             
C  6.71 16.27  9.58                                                             
C  6.71 16.27 22.36                                                             
C  6.71 16.27 35.14                                                             
C  6.71 16.27 47.92                                                             
C  6.71 16.27 60.69                                                             
C 10.74 13.95  9.58                                                             
C 10.74 13.95 22.36                                                             
C 10.74 13.95 35.14                                                             
C 10.74 13.95 47.92                                                             
C 10.74 13.95 60.69                                                             
C 14.76 11.62  9.58                                                             
C 14.76 11.62 22.36                                                             
C 14.76 11.62 35.14                                                             
C 14.76 11.62 47.92                                                             
C 14.76 11.62 60.69                                                             
C 18.79  9.30  9.58                                                             
C 18.79  9.30 22.36                                                             
C 18.79  9.30 35.14                                                             
C 18.79  9.30 47.92                                                             
C 18.79  9.30 60.69                                                             
C 22.81  6.97  9.58                                                             
C 22.81  6.97 22.36                                                             
C 22.81  6.97 35.14                                                             
C 22.81  6.97 47.92                                                             
C 22.81  6.97 60.69                                                             
C 26.84  4.65  9.58                                                             
C 26.84  4.65 22.36                                                             
C 26.84  4.65 35.14                                                             
C 26.84  4.65 47.92                                                             
C 26.84  4.65 60.69                                                             
C 30.86  2.32  9.58                                                             
C 30.86  2.32 22.36                                                             
C 30.86  2.32 35.14                                                             
C 30.86  2.32 47.92                                                             
C 30.86  2.32 60.69                                                             
C 14.76 16.27  9.58                                                             
C 14.76 16.27 22.36                                                             
C 14.76 16.27 35.14                                                             
C 14.76 16.27 47.92                                                             
C 14.76 16.27 60.69                                                             
C 18.79 13.95  9.58                                                             
C 18.79 13.95 22.36                                                             
C 18.79 13.95 35.14                                                             
C 18.79 13.95 47.92                                                             
C 18.79 13.95 60.69                                                             
C 22.81 11.62  9.58                                                             
C 22.81 11.62 22.36                                                             
C 22.81 11.62 35.14                                                             
C 22.81 11.62 47.92                                                             
C 22.81 11.62 60.69                                                             
C 26.84  9.30  9.58                                                             
C 26.84  9.30 22.36                                                             
C 26.84  9.30 35.14                                                             
C 26.84  9.30 47.92                                                             
C 26.84  9.30 60.69                                                             
C 30.86  6.97  9.58                                                             
C 30.86  6.97 22.36                                                             
C 30.86  6.97 35.14                                                             
C 30.86  6.97 47.92                                                             
C 30.86  6.97 60.69                                                             
C 22.81 16.27  9.58                                                             
C 22.81 16.27 22.36                                                             
C 22.81 16.27 35.14                                                             
C 22.81 16.27 47.92                                                             
C 22.81 16.27 60.69                                                             
C 26.84 13.95  9.58                                                             
C 26.84 13.95 22.36                                                             
C 26.84 13.95 35.14                                                             
C 26.84 13.95 47.92                                                             
C 26.84 13.95 60.69                                                             
C 30.86 11.62  9.58                                                             
C 30.86 11.62 22.36                                                             
C 30.86 11.62 35.14                                                             
C 30.86 11.62 47.92                                                             
C 30.86 11.62 60.69                                                             
C 30.86 16.27  9.58                                                             
C 30.86 16.27 22.36                                                             
C 30.86 16.27 35.14                                                             
C 30.86 16.27 47.92                                                             
C 30.86 16.27 60.69                                                             
%ENDBLOCK POSITIONS_ABS                                                         

--------------------------------------------------------------------------------
-------------------------------- END INPUT FILE --------------------------------
--------------------------------------------------------------------------------


 
<<<<<<<<<<<<<<<<<<<<<<<<<<<<<<<<< Full system >>>>>>>>>>>>>>>>>>>>>>>>>>>>>>>>>>
<<<<<<<<<<<<<<<<<<<<<<<<<<< PAW Dataset information >>>>>>>>>>>>>>>>>>>>>>>>>>>
File: ~/pp/paw/c_pbe_abinit.paw; rc = 1.25 bohr; shape type =  3; rshape = 1.25 bohr;
  Atomic number:  6;  ionic charge:  4.000000
    Partial Wave 1: l = 0
    Partial Wave 2: l = 0
    Partial Wave 3: l = 1
    Partial Wave 4: l = 1
  Core charge supplied for Nonlinear Core Corrections
<<<<<<<<<<<<<<<<<<<<<<<<<<<<<<<<<<<<<<< >>>>>>>>>>>>>>>>>>>>>>>>>>>>>>>>>>>>>>>

-------------------------- Atom counting information ---------------------------
Symbol    Natoms    Nngwfs    Nprojs
  C        640      2560      5120
.......   ......    ......    ......
Totals:    640      2560      5120
--------------------------------------------------------------------------------

=============================== PSINC grid sizes ===============================
                      Simulation cell:   63 x  35 x 126
                              FFT-box:   63 x  35 x 117
                                  PPD:    7 x   5 x   1
Grid space d1=  0.511269841270a0 (KE cutoff=  29.06054Eh = 790.77748eV)
Grid space d2=  0.531142857143a0 (KE cutoff=  26.92659Eh = 732.70972eV)
Grid space d3=  0.507063492063a0 (KE cutoff=  29.54468Eh = 803.95170eV)
================================================================================
  
WARNING in cell_grid_distribute:
Average of less than one 23-slab per node, so workload cannot be
equally balanced between nodes.

********************* Fourier parallelisation information **********************
       Coarse grid (whole simulation cell) dimensions:     63    35   126
          Real-space ('12') slabs/node (min max mean):      3     4     3
         Recip-space ('23') slabs/node (min max mean):      0     1     0
********************************************************************************

********************* Fourier parallelisation information **********************
       Double grid (whole simulation cell) dimensions:    126    70   252
          Real-space ('12') slabs/node (min max mean):      6     7     6
         Recip-space ('23') slabs/node (min max mean):      1     2     1
********************************************************************************

Atom SCF Calculation for C  : Z (AE atom) =   6 : Z (PS atom) =   4
Config String: 2s2 2p2
Orbitals (num,occ):  2     2.00 2.00
Orbitals   (num,l):  2        0    1
Real-space Grid (nr,dr,rmax): 1293    0.0069659443    9.0000000000
Spherical Bessel Basis (nsws,lmax,cutoff):   37    2  161.4736382572
Confining potential (l,width,scale):  0    3.0000000000  100.0000000000
Confining potential (l,width,scale):  1    3.0000000000  100.0000000000
  1         -5.4468762137   -1.3311033486    4.5135257941   -1.6400141247
  2         -5.4563922850   -1.3925089082    4.4492606193   -1.6178955363
  3         -5.4591606672   -1.4162756486    4.4239316220   -1.6104942496
  4         -5.4639338613   -1.4240698331    4.4156521757   -1.6083566999
  5         -5.4657436445   -1.4272842389    4.4122438165   -1.6075116305
  6         -5.4665049591   -1.4285796230    4.4108740217   -1.6071800157
  7         -5.4668137280   -1.4291083664    4.4103163978   -1.6070462938
  8         -5.4669397753   -1.4293243321    4.4100892688   -1.6069921003
  9         -5.4669910134   -1.4294128082    4.4099964732   -1.6069700140
 10         -5.4670118707   -1.4294491026    4.4099585094   -1.6069609935
 11         -5.4670203648   -1.4294640137    4.4099429536   -1.6069573023
 12         -5.4670238269   -1.4294701480    4.4099365706   -1.6069557895
 13         -5.4670252393   -1.4294726750    4.4099339478   -1.6069551687
 14         -5.4670258160   -1.4294737172    4.4099328686   -1.6069549136
 15         -5.4670260518   -1.4294741476    4.4099324241   -1.6069548086
 16         -5.4670261483   -1.4294743256    4.4099322407   -1.6069547654
Atom SCF converged after  16 iterations to a total energy of     -5.46702615

Determining parallel strategy ...
... using space-filling curve
... NGWF load balancing: max     64;  min     64;  average     64
... Projector load balancing: max    128;  min    128;  average    128
... done
Calculating Ewald energy ...
              Ewald: real-space energy =    9498.235686
        Ewald: reciprocal-space energy =       0.096780
         Ewald: (sum_charge)**2 Energy =   11284.672060
         Ewald: (sum_charge**2) Energy =     892.131659
                          Ewald Energy =   -2678.471254
Basis initialisation ...... NGWF spheres initialised
... Projector spheres initialised
... NGWF tight boxes initialised
... Projector tight boxes initialised
... Tight-boxes gathered
... NGWF basis size (local,global):     693332  27907072
... PAW projector initialisation
... done

============================= Charge Augmentation ==============================
                           Aug box size:   11 x  11 x  11
================================================================================

========================== Sparse matrix information ===========================
                        Overlap matrix filling:  44.38%
                        Density kernel filling: 100.00%
              NGWF-Proj overlap matrix filling:  12.19%
                    Aug Overlap matrix filling:  47.03%
                    Hamiltonian matrix filling:  47.03%
                  NGWF diagonal matrix filling:   0.16%
                             KS matrix filling: 100.00% 
                           KSKS matrix filling: 100.00% 
================================================================================

Sparse matrix initialisation ... done
NGWF initialisation ...... done
============ Calculation of NGWF S^-1 using Hotelling algorithm ================ 
         Iteration  |  Frobenius norm and Maximum abs value    (of I-S*S_n^-1)   
               1       0.49114777E+02     0.97671240E+00
               2       0.47921345E+02     0.95523202E+00
               3       0.46114954E+02     0.91675759E+00
               4       0.43750765E+02     0.85313117E+00
               5       0.40907742E+02     0.75830793E+00
               6       0.37586269E+02     0.68161866E+00
               7       0.34098139E+02     0.63318009E+00
               8       0.30774779E+02     0.59298823E+00
               9       0.27267365E+02     0.55034067E+00
              10       0.22863725E+02     0.48421065E+00
              11       0.17109782E+02     0.37826059E+00
              12       0.10382004E+02     0.23579188E+00
              13       0.43574560E+01     0.97324362E-01
              14       0.91608853E+00     0.18901366E-01
              15       0.47999513E-01     0.86979010E-03
              16       0.16515786E-03     0.23342345E-05
              17       0.29178409E-08     0.25642932E-10
              18       0.79007902E-13     0.39968029E-14
================================================================================
Calculating core density ...
================================= Core Density =================================
               Core den box size:   21 x  21 x  21
================================================================================
 ... done
Up spin density kernel initialisation ...... done

Writing density kernel to file "3.3808312_GO_manual_4x64graphite.dkn" ... done

>>> Optimising kernel for current NGWFs:

--------------------------- Ensemble-DFT optimisation --------------------------
Running ScaLAPACK on   40 processor(s).

--------------------------------------------------------------------------------
  Iter                              Commutator    Free_energy(A=E-TS)     DeltaA
#    0                          0.000039649215   -3652.49511064922626  -3.65E+03

Step                       =       0.381966011250
Energy                     =   -3652.495076580923
Entropy (-TS)              =      -0.000034068551
Free energy (A=E-TS)       =   -3652.495110649226
Est. 0K Energy 0.5*(E+A)   =   -3652.495093615074
Residual Non-orthogonality =       0.000000000000
Residual N_electrons       =       0.000000000247

Spin          Integrated_Ne            Fermi_level     Delta_Fermi_level
   1      2559.999999998802         0.206147997468              2.06E-01

                           Spin 1          
     Orb      H-eigenvalues     Occupancies
       1 |    -0.5156193143    1.0000000000 | 
                          ------
    1276 |     0.1725184892    0.9999755623 | 
    1277 |     0.1731295560    0.9999703613 | 
    1278 |     0.1731379943    0.9999702822 | 
    1279 |     0.1735913328    0.9999657086 | 
    1280 |     0.1742049181    0.9999583775 | 
                 - Gap at zero temperature -
    1281 |     0.2406969621    0.0000182797 | 
    1282 |     0.2407196437    0.0000181493 | 
    1283 |     0.2407734867    0.0000178433 | 
    1284 |     0.2409230649    0.0000170201 | 
    1285 |     0.2409457247    0.0000168988 | 
                          ------
    2560 |     1.0362074220    0.0000000000 | 

                       |  Abs_value |  Threshold | Converged
     Delta_Free_energy |   3.65E+03 |   1.00E-06 |        No
     Delta_Energy      |   3.65E+03 |   1.00E-04 |        No
     Delta_Entropy     |   3.41E-05 |   1.00E-04 |       Yes
     Commutator        |   3.96E-05 |   1.00E-05 |        No
     Delta_Fermi_level |   2.06E-01 |   1.00E-03 |        No

  Line search of the free energy minimum:
  Step_type        Step             Free_energy   Predicted_free_energy
.   Initial    0.000000    -3652.49511064922626
.    Trial1    0.381966    -3652.49673929313758
.    Trial2    0.618034    -3652.49683376631629
. Quadratic    0.532008    -3652.49687967331738    -3652.49688003069014

--------------------------------------------------------------------------------
  Iter                              Commutator    Free_energy(A=E-TS)     DeltaA
#    1                          0.000021669006   -3652.49687967331738  -1.77E-03

Step                       =       0.532007812967
Energy                     =   -3652.496846151732
Entropy (-TS)              =      -0.000033521445
Free energy (A=E-TS)       =   -3652.496879673317
Est. 0K Energy 0.5*(E+A)   =   -3652.496862912525
Residual Non-orthogonality =       0.000000000000
Residual N_electrons       =      -0.000000000141

Spin          Integrated_Ne            Fermi_level     Delta_Fermi_level
   1      2560.000000000678         0.207161157641              1.01E-03

                           Spin 1          
     Orb      H-eigenvalues     Occupancies
       1 |    -0.5160414390    1.0000000000 | 
                          ------
    1276 |     0.1735615200    0.9999753307 | 
    1277 |     0.1740198680    0.9999714890 | 
    1278 |     0.1740403274    0.9999713042 | 
    1279 |     0.1746422699    0.9999652971 | 
    1280 |     0.1751153230    0.9999597063 | 
                 - Gap at zero temperature -
    1281 |     0.2417210268    0.0000182169 | 
    1282 |     0.2417621285    0.0000179820 | 
    1283 |     0.2418231136    0.0000176390 | 
    1284 |     0.2419917005    0.0000167246 | 
    1285 |     0.2420056505    0.0000166510 | 
                          ------
    2560 |     1.0374982295    0.0000000000 | 

                       |  Abs_value |  Threshold | Converged
     Delta_Free_energy |   1.77E-03 |   1.00E-06 |        No
     Delta_Energy      |   1.77E-03 |   1.00E-04 |        No
     Delta_Entropy     |   5.47E-07 |   1.00E-04 |       Yes
     Commutator        |   2.17E-05 |   1.00E-05 |        No
     Delta_Fermi_level |   1.01E-03 |   1.00E-03 |        No

  Line search of the free energy minimum:
  Step_type        Step             Free_energy   Predicted_free_energy
.   Initial    0.000000    -3652.49687967331738
.    Trial1    0.532008    -3652.49691352132368
.    Trial2    0.710765    -3652.49622530465467
. Quadratic    0.271781    -3652.49728727594493    -3652.49728639116893

--------------------------------------------------------------------------------
  Iter                              Commutator    Free_energy(A=E-TS)     DeltaA
#    2                          0.000012932757   -3652.49728727594493  -4.08E-04

Step                       =       0.271781286744
Energy                     =   -3652.497253945695
Entropy (-TS)              =      -0.000033330078
Free energy (A=E-TS)       =   -3652.497287275945
Est. 0K Energy 0.5*(E+A)   =   -3652.497270610820
Residual Non-orthogonality =       0.000000000000
Residual N_electrons       =      -0.000000000172

Spin          Integrated_Ne            Fermi_level     Delta_Fermi_level
   1      2560.000000000832         0.207384140768              2.23E-04

                           Spin 1          
     Orb      H-eigenvalues     Occupancies
       1 |    -0.5161458206    1.0000000000 | 
                          ------
    1276 |     0.1737402940    0.9999756727 | 
    1277 |     0.1742431062    0.9999714867 | 
    1278 |     0.1742636362    0.9999713013 | 
    1279 |     0.1748176486    0.9999658149 | 
    1280 |     0.1753351434    0.9999597465 | 
                 - Gap at zero temperature -
    1281 |     0.2419742331    0.0000180438 | 
    1282 |     0.2420154510    0.0000178105 | 
    1283 |     0.2420738135    0.0000174853 | 
    1284 |     0.2422535322    0.0000165206 | 
    1285 |     0.2422685191    0.0000164426 | 
                          ------
    2560 |     1.0377927834    0.0000000000 | 

                       |  Abs_value |  Threshold | Converged
     Delta_Free_energy |   4.08E-04 |   1.00E-06 |        No
     Delta_Energy      |   4.08E-04 |   1.00E-04 |        No
     Delta_Entropy     |   1.91E-07 |   1.00E-04 |       Yes
     Commutator        |   1.29E-05 |   1.00E-05 |        No
     Delta_Fermi_level |   2.23E-04 |   1.00E-03 |       Yes

  Line search of the free energy minimum:
  Step_type        Step             Free_energy   Predicted_free_energy
.   Initial    0.000000    -3652.49728727594493
.    Trial1    0.271781    -3652.49742554509430
.    Trial2    0.549936    -3652.49735957548501
. Quadratic    0.323431    -3652.49742914541821    -3652.49742916353989

--------------------------------------------------------------------------------
  Iter                              Commutator    Free_energy(A=E-TS)     DeltaA
#    3                          0.000009057979   -3652.49742914541821  -1.42E-04

Step                       =       0.323431360576
Energy                     =   -3652.497395969736
Entropy (-TS)              =      -0.000033175671
Free energy (A=E-TS)       =   -3652.497429145418
Est. 0K Energy 0.5*(E+A)   =   -3652.497412557577
Residual Non-orthogonality =       0.000000000000
Residual N_electrons       =      -0.000000000011

Spin          Integrated_Ne            Fermi_level     Delta_Fermi_level
   1      2560.000000000051         0.207579825549              1.96E-04

                           Spin 1          
     Orb      H-eigenvalues     Occupancies
       1 |    -0.5162288580    1.0000000000 | 
                          ------
    1276 |     0.1739134662    0.9999758450 | 
    1277 |     0.1744282353    0.9999715816 | 
    1278 |     0.1744486330    0.9999713980 | 
    1279 |     0.1749900670    0.9999660651 | 
    1280 |     0.1755193680    0.9999598919 | 
                 - Gap at zero temperature -
    1281 |     0.2421880538    0.0000179408 | 
    1282 |     0.2422290459    0.0000177101 | 
    1283 |     0.2422867507    0.0000173903 | 
    1284 |     0.2424692410    0.0000164165 | 
    1285 |     0.2424852416    0.0000163338 | 
                          ------
    2560 |     1.0380643404    0.0000000000 | 

                       |  Abs_value |  Threshold | Converged
     Delta_Free_energy |   1.42E-04 |   1.00E-06 |        No
     Delta_Energy      |   1.42E-04 |   1.00E-04 |        No
     Delta_Entropy     |   1.54E-07 |   1.00E-04 |       Yes
     Commutator        |   9.06E-06 |   1.00E-05 |       Yes
     Delta_Fermi_level |   1.96E-04 |   1.00E-03 |       Yes

  Line search of the free energy minimum:
  Step_type        Step             Free_energy   Predicted_free_energy
.   Initial    0.000000    -3652.49742914541821
.    Trial1    0.323431    -3652.49749175781290
.    Trial2    0.581858    -3652.49740624061815
. Quadratic    0.269094    -3652.49749442898064    -3652.49749441932181

--------------------------------------------------------------------------------
  Iter                              Commutator    Free_energy(A=E-TS)     DeltaA
#    4                          0.000006262510   -3652.49749442898064  -6.53E-05

Step                       =       0.269094035432
Energy                     =   -3652.497461335875
Entropy (-TS)              =      -0.000033093018
Free energy (A=E-TS)       =   -3652.497494428981
Est. 0K Energy 0.5*(E+A)   =   -3652.497477882428
Residual Non-orthogonality =       0.000000000000
Residual N_electrons       =      -0.000000000090

Spin          Integrated_Ne            Fermi_level     Delta_Fermi_level
   1      2560.000000000433         0.207690155076              1.10E-04

                           Spin 1          
[...]
 C   275 -- C   555       -0.10      5.37000
 C   274 -- C   554       -0.10      5.37000
 C   273 -- C   553       -0.10      5.37000
 C   272 -- C   552       -0.10      5.37000
 C   271 -- C   551       -0.10      5.37000
 C   270 -- C   550       -0.10      5.37000
 C   269 -- C   549       -0.10      5.37000
 C   268 -- C   548       -0.10      5.37000
 C   267 -- C   547       -0.10      5.37000
 C   266 -- C   546       -0.10      5.37000
 C   130 -- C   465       -0.09      5.37000
 C   129 -- C   464       -0.09      5.37000
 C   128 -- C   463       -0.09      5.37000
 C   127 -- C   462       -0.09      5.37000
 C   126 -- C   461       -0.09      5.37000
 C   240 -- C   525       -0.10      5.37000
 C   239 -- C   524       -0.09      5.37000
 C   238 -- C   523       -0.10      5.37000
 C   237 -- C   522       -0.10      5.37000
 C   236 -- C   521       -0.10      5.37000
 C    23 -- C   478       -0.09      5.37202
 C    49 -- C   469       -0.09      5.37202
 C    48 -- C   468       -0.09      5.37202
 C    47 -- C   467       -0.09      5.37202
 C    22 -- C   477       -0.09      5.37202
 C    46 -- C   466       -0.09      5.37202
 C    21 -- C   476       -0.09      5.37202
 C    25 -- C   480       -0.09      5.37202
 C    24 -- C   479       -0.09      5.37202
 C    50 -- C   470       -0.09      5.37202
 C    24 -- C   449       -0.09      5.37202
 C     6 -- C   416       -0.09      5.37202
 C    23 -- C   448       -0.09      5.37202
 C    22 -- C   447       -0.09      5.37202
 C    10 -- C   470       -0.09      5.37202
 C     5 -- C   450       -0.09      5.37202
 C    21 -- C   446       -0.09      5.37202
 C    10 -- C   420       -0.09      5.37202
 C     9 -- C   469       -0.09      5.37202
 C     9 -- C   419       -0.09      5.37202
 C     8 -- C   468       -0.09      5.37202
 C     4 -- C   449       -0.09      5.37202
 C     8 -- C   418       -0.09      5.37202
 C     2 -- C   447       -0.09      5.37202
 C     7 -- C   467       -0.09      5.37202
 C     7 -- C   417       -0.09      5.37202
 C     1 -- C   446       -0.09      5.37202
 C     6 -- C   466       -0.09      5.37202
 C    25 -- C   450       -0.09      5.37202
 C     3 -- C   448       -0.09      5.37202
 C   285 -- C   580       -0.09      5.37202
 C   284 -- C   579       -0.09      5.37202
 C   283 -- C   578       -0.09      5.37202
 C   282 -- C   577       -0.09      5.37202
 C   281 -- C   576       -0.09      5.37202
 C   260 -- C   605       -0.09      5.37202
 C   259 -- C   604       -0.09      5.37202
 C   258 -- C   603       -0.09      5.37202
 C   257 -- C   602       -0.09      5.37202
 C   256 -- C   601       -0.09      5.37202
 C   219 -- C   569       -0.09      5.37202
 C   218 -- C   568       -0.09      5.37202
 C   217 -- C   567       -0.09      5.37202
 C   216 -- C   566       -0.09      5.37202
 C   250 -- C   540       -0.09      5.37202
 C   249 -- C   539       -0.09      5.37202
 C   248 -- C   538       -0.09      5.37202
 C   247 -- C   537       -0.09      5.37202
 C   246 -- C   536       -0.09      5.37202
 C   220 -- C   570       -0.09      5.37202
 C   205 -- C   550       -0.09      5.37202
 C   204 -- C   549       -0.09      5.37202
 C   203 -- C   548       -0.09      5.37202
 C   202 -- C   547       -0.09      5.37202
 C   201 -- C   546       -0.09      5.37202
 C   260 -- C   550       -0.09      5.37202
 C   259 -- C   549       -0.09      5.37202
 C   258 -- C   548       -0.09      5.37202
 C   257 -- C   547       -0.09      5.37202
 C   256 -- C   546       -0.09      5.37202
 C   230 -- C   580       -0.09      5.37202
 C   230 -- C   525       -0.09      5.37202
 C   229 -- C   579       -0.09      5.37202
 C   229 -- C   524       -0.09      5.37202
 C   228 -- C   578       -0.09      5.37202
 C   228 -- C   523       -0.09      5.37202
 C   227 -- C   577       -0.09      5.37202
 C   227 -- C   522       -0.09      5.37202
 C   226 -- C   576       -0.09      5.37202
 C   226 -- C   521       -0.09      5.37202
 C   220 -- C   515       -0.09      5.37202
 C   219 -- C   514       -0.09      5.37202
 C   218 -- C   513       -0.09      5.37202
 C   217 -- C   512       -0.09      5.37202
 C   216 -- C   511       -0.09      5.37202
 C    11 -- C   331       -0.09      5.37202
 C   195 -- C   540       -0.09      5.37202
 C   195 -- C   500       -0.09      5.37202
 C   194 -- C   539       -0.09      5.37202
 C   194 -- C   499       -0.09      5.37202
 C   193 -- C   538       -0.09      5.37202
 C   193 -- C   498       -0.09      5.37202
 C   192 -- C   537       -0.09      5.37202
 C   192 -- C   497       -0.09      5.37202
 C   191 -- C   536       -0.09      5.37202
 C   191 -- C   496       -0.09      5.37202
 C   180 -- C   515       -0.09      5.37202
 C    40 -- C   365       -0.09      5.37202
 C   179 -- C   514       -0.09      5.37202
 C   178 -- C   513       -0.09      5.37202
 C   177 -- C   512       -0.09      5.37202
 C    39 -- C   364       -0.09      5.37202
 C   176 -- C   511       -0.09      5.37202
 C    38 -- C   363       -0.09      5.37202
 C    37 -- C   362       -0.09      5.37202
 C    36 -- C   361       -0.09      5.37202
 C   150 -- C   440       -0.09      5.37202
 C   149 -- C   439       -0.09      5.37202
 C   148 -- C   438       -0.09      5.37202
 C   147 -- C   437       -0.09      5.37202
 C   146 -- C   436       -0.09      5.37202
 C    15 -- C   335       -0.09      5.37202
 C    65 -- C   345       -0.09      5.37202
 C    64 -- C   344       -0.09      5.37202
 C   135 -- C   460       -0.09      5.37202
 C    63 -- C   343       -0.09      5.37202
 C   134 -- C   459       -0.09      5.37202
 C    30 -- C   325       -0.09      5.37202
 C   133 -- C   458       -0.09      5.37202
 C    62 -- C   342       -0.09      5.37202
 C    14 -- C   334       -0.09      5.37202
 C   132 -- C   457       -0.09      5.37202
 C   131 -- C   456       -0.09      5.37202
 C    61 -- C   341       -0.09      5.37202
 C    29 -- C   324       -0.09      5.37202
 C    28 -- C   323       -0.09      5.37202
 C    13 -- C   333       -0.09      5.37202
 C    27 -- C   322       -0.09      5.37202
 C    26 -- C   321       -0.09      5.37202
 C    12 -- C   332       -0.09      5.37202
 C    95 -- C   365       -0.09      5.37202
 C    94 -- C   364       -0.09      5.37202
 C    93 -- C   363       -0.09      5.37202
 C    92 -- C   362       -0.09      5.37202
 C    91 -- C   361       -0.09      5.37202
 C    65 -- C   395       -0.09      5.37202
 C    64 -- C   394       -0.09      5.37202
 C    63 -- C   393       -0.09      5.37202
 C    30 -- C   355       -0.09      5.37202
 C    62 -- C   392       -0.09      5.37202
 C    61 -- C   391       -0.09      5.37202
 C    29 -- C   354       -0.09      5.37202
 C    28 -- C   353       -0.09      5.37202
 C    27 -- C   352       -0.09      5.37202
 C    26 -- C   351       -0.09      5.37202
 C    55 -- C   335       -0.09      5.37202
 C    54 -- C   334       -0.09      5.37202
 C    53 -- C   333       -0.09      5.37202
 C    52 -- C   332       -0.09      5.37202
 C    51 -- C   331       -0.09      5.37202
 C    95 -- C   425       -0.09      5.37202
 C    94 -- C   424       -0.09      5.37202
 C    93 -- C   423       -0.09      5.37202
 C    92 -- C   422       -0.09      5.37202
 C    91 -- C   421       -0.09      5.37202
 C    85 -- C   355       -0.09      5.37202
 C    84 -- C   354       -0.09      5.37202
 C    83 -- C   353       -0.09      5.37202
 C    82 -- C   352       -0.09      5.37202
 C    81 -- C   351       -0.09      5.37202
 C   120 -- C   395       -0.09      5.37202
 C    55 -- C   385       -0.09      5.37202
 C   119 -- C   394       -0.09      5.37202
 C   118 -- C   393       -0.09      5.37202
 C   117 -- C   392       -0.09      5.37202
 C    54 -- C   384       -0.09      5.37202
 C   116 -- C   391       -0.09      5.37202
 C    53 -- C   383       -0.09      5.37202
 C    52 -- C   382       -0.09      5.37202
 C    51 -- C   381       -0.09      5.37202
 C   106 -- C   436       -0.09      5.37202
 C   106 -- C   376       -0.09      5.37202
 C    80 -- C   410       -0.09      5.37202
 C    79 -- C   409       -0.09      5.37202
 C    78 -- C   408       -0.09      5.37202
 C    77 -- C   407       -0.09      5.37202
 C    76 -- C   406       -0.09      5.37202
 C   135 -- C   410       -0.09      5.37202
 C   134 -- C   409       -0.09      5.37202
 C   133 -- C   408       -0.09      5.37202
 C   132 -- C   407       -0.09      5.37202
 C   131 -- C   406       -0.09      5.37202
 C   110 -- C   440       -0.09      5.37202
 C   110 -- C   380       -0.09      5.37202
 C   109 -- C   439       -0.09      5.37202
 C   109 -- C   379       -0.09      5.37202
 C   108 -- C   438       -0.09      5.37202
 C   108 -- C   378       -0.09      5.37202
 C   107 -- C   437       -0.09      5.37202
 C   107 -- C   377       -0.09      5.37202
 C   215 -- C   635       -0.09      5.38000
 C   214 -- C   634       -0.09      5.38000
 C   213 -- C   633       -0.09      5.38000
 C   212 -- C   632       -0.09      5.38000
 C   211 -- C   631       -0.09      5.38000
 C   190 -- C   620       -0.09      5.38000
 C   189 -- C   619       -0.09      5.38000
 C   188 -- C   618       -0.09      5.38000
 C   187 -- C   617       -0.09      5.38000
 C   186 -- C   616       -0.09      5.38000
 C   175 -- C   595       -0.09      5.38000
 C   174 -- C   594       -0.09      5.38000
 C   173 -- C   593       -0.09      5.38000
 C   172 -- C   592       -0.09      5.38000
 C   171 -- C   591       -0.09      5.38000
 C   245 -- C   640       -0.09      5.38000
 C   244 -- C   639       -0.09      5.38000
 C   243 -- C   638       -0.09      5.38000
 C   242 -- C   637       -0.09      5.38000
 C   241 -- C   636       -0.09      5.38000
==================================================


=================== Orbital energy and occupancy information ===================

      Total number of orbitals:    2560
        Occupancy sum (kernel):    1279.999999999
   Occupancy sum (eigenvalues):    1279.999999999
                 HOMO-LUMO gap:       0.063316859 Eh
                 Mid-gap level:       0.253624444 Eh

                        Orbital | Energy (Eh) | Occupancy
                            1    -0.469978811   1.0000000
                        .......   ...........   .........
                         1271     0.216437209   0.9999885
                         1272     0.216450354   0.9999885
                         1273     0.216907547   0.9999867
                         1274     0.216920673   0.9999866
                         1275     0.220556070   0.9999579
                         1276     0.220567890   0.9999577
                         1277     0.221011587   0.9999514
                         1278     0.221023493   0.9999512
                         1279     0.221521433   0.9999429
                         1280     0.221966014   0.9999342
                        ....... -- gap at 0K -- .........
                         1281     0.285282873   0.0000315
                         1282     0.285293090   0.0000314
                         1283     0.285534210   0.0000291
                         1284     0.285544490   0.0000290
                         1285     0.286058056   0.0000247
                         1286     0.286076846   0.0000245
                         1287     0.286324601   0.0000227
                         1288     0.286343264   0.0000226
                         1289     0.286625528   0.0000207
                         1290     0.286723724   0.0000199
                        .......   ...........   .........
                         2560     1.140471374   0.0000000

================================================================================

===================== Writing canonical molecular orbitals =====================
| Orbital  Energy (eV)  Norm     |
| HOMO      6.04000258  1.000000 | Writing "3.3808312_GO_manual_4x64graphite_HOMO.cube" ... done
Writing "3.3808312_GO_manual_4x64graphite_HOMO.dx" ... done
| LUMO      7.76294198  1.000000 | Writing "3.3808312_GO_manual_4x64graphite_LUMO.cube" ... done
Writing "3.3808312_GO_manual_4x64graphite_LUMO.dx" ... done
================================================================================
 
===================== Density of States (DOS) calculation ======================
Writing "3.3808312_GO_manual_4x64graphite_DOS.txt" ...  done
================================================================================
 
Writing bands to file "3.3808312_GO_manual_4x64graphite.val_bands" ... done
 
================ Projected Density of States (pDOS) calculation ================
 
Constructing AM resolved functions  ...... done
Writing NGWF plot files in formats: CUBE DX ...  done
 
Performing overlap integrals ...  done
 
Computing pDOS weights ...  done
 
All bands spilling parameter =   3.75 %
Occupancy-weighted spilling parameter =   0.86 %
 
 => Outputting data for OptaDOS <=
 
Writing pDOS weights to file "3.3808312_GO_manual_4x64graphite.val_pdos_bin" ... done
 
Writing band gradients to file "3.3808312_GO_manual_4x64graphite.val_dome_bin" ... done
 
Writing Castep output cell file to "3.3808312_GO_manual_4x64graphite-out.cell" ... done
 
 => Computing Gaussian smeared pDOS <= 
Writing "3.3808312_GO_manual_4x64graphite_PDOS.txt" ...  done
 
 => Computing Occupancy-weighted Gaussian smeared pDOS <= 
Writing "3.3808312_GO_manual_4x64graphite_occ_PDOS.txt" ...  done
  => Band centres: 
 S band centre of group 1:  -13.843100 eV
 P band centre of group 1:   -6.735913 eV
  Band centres done. <=
  => Integrated number of electrons in each AM band: 
 S num electrons of group 1:  574.282917
 P num electrons of group 1: 1963.696246
  Integrated number of electrons done. <=
================================================================================

------------------------------ TIMING INFORMATION ------------------------------
AVERAGE TIME:    3847.129s on     40 node(s)                                    
TOTAL TIME:      3847.129s on     40 node(s)                                    
================= AVERAGE TIMINGS FROM ALL NODES (CUMULATIVE) ==================
|| TAG                                    #calls    cpu time   %total  Gflops ||
|| work_imbalance                       :     1        0.00s   0.000%  ------ ||
|| paw_tcore_hartree_on_grid            :     1        0.01s   0.000%  ------ ||
|| paw_tcore_density                    :     1        0.01s   0.000%  ------ ||
|| paw_sphere_density_on_grid           :     1        0.02s   0.000%  ------ ||
|| sparse_set_to_garbage                :   171        0.03s   0.001%  ------ ||
|| paw_dij_hartree                      :   351        0.04s   0.001%  ------ ||
|| pseudo_make_structure_factor         :     1        0.06s   0.002%  ------ ||
|| basis_extract_function_from_box      :  1920        0.08s   0.002%  ------ ||
|| paw_species_calc_proj_prec_mat       :     1        0.12s   0.003%  ------ ||
|| paw_dataset_init                     :     1        0.15s   0.004%  ------ ||
|| density_init_guess_real              :     1        0.21s   0.005%  ------ ||
|| ngwfs_initialise_from_radial         :     2        0.67s   0.017%  ------ ||
|| dense_normal_eigensolve              :     1        0.93s   0.024%  ------ ||
|| sparse_init                          :     1        0.96s   0.025%  ------ ||
|| restart_kernel_write                 :    16        0.99s   0.026%  ------ ||
|| hartree_on_grid                      :   263        1.08s   0.028%  ------ ||
|| ewald_calculate_energy               :     1        2.69s   0.070%  ------ ||
|| projectors_init_fftbox_recip         :   151        2.87s   0.075%  ------ ||
|| fourier_apply_box_pair               :  2848        4.70s   0.122% 562.140 ||
|| basis_copy_function_to_box           : 24960        5.42s   0.141%  ------ ||
|| augmentation_screen_dij              :   268        5.87s   0.152%  ------ ||
|| sw_init                              :     1        6.73s   0.175%  ------ ||
|| sparse_embed_hotelling_invert_embed  :    29        8.33s   0.216%  ------ ||
|| ngwf_gradient_coeffs                 :    15       11.50s   0.299%  ------ ||
|| fourier_apply_cell_backward          :  8124       13.37s   0.348%  71.940 ||
|| cell_grid_extract_box_real           : 10508       14.53s   0.378%  ------ ||
|| fourier_apply_cell_forward           :  7599       15.79s   0.410%  56.995 ||
|| sparse_trace                         :  3178       18.69s   0.486%  ------ ||
|| cell_grid_deposit_box_real           : 33840       18.70s   0.486%  ------ ||
|| paw_dij_xc                           :   351       23.64s   0.615%  ------ ||
|| aug_nonlocal_mat                     :   336       34.87s   0.906%  ------ ||
|| density_fftbox_deposit_to_cell       : 16832       36.38s   0.946%  ------ ||
|| hamiltonian_energy_components        :     3       47.75s   1.241%  ------ ||
|| augmentation_density_on_grid         :   263       51.09s   1.328%  ------ ||
|| eigenstates_pdos                     :     1       53.38s   1.387%  ------ ||
|| eigenstates_calculate                :     1       57.50s   1.495%  ------ ||
|| function_ops_brappd_ketppd           :    60       59.13s   1.537%  ------ ||
|| nlxc_vdw_energy                      :   524       62.10s   1.614%  ------ ||
|| projectors_func_ovlp_box             :    30       66.84s   1.737%  ------ ||
|| xc_energy_potential                  :   262       73.54s   1.911%  ------ ||
|| integrals_kinetic                    :    29      102.38s   2.661%  ------ ||
|| properties_calculate                 :     1      102.76s   2.671%  ------ ||
|| dense_eigensolve                     :   230      104.90s   2.727%  ------ ||
|| potential_apply_to_ngwf_batch        :   328      124.21s   3.229%  ------ ||
|| restart_ngwfs_tightbox_output        :    14      131.42s   3.416%  ------ ||
|| sparse_product                       :  3216      141.75s   3.684%  ------ ||
|| basis_dot_function_with_box          : 8.215M     217.63s   5.657%  ------ ||
|| fourier_apply_box                    : 78704      243.52s   6.330% 981.441 ||
|| edft_diag_ngwf_ham                   :   229      244.96s   6.367%  ------ ||
|| projectors_gradient_batch            :    60      263.99s   6.862%  ------ ||
|| integrals_locpot_mat_els_batch       :   328      293.74s   7.635%  ------ ||
|| density_fftbox_interpolate_multiply  : 16832      326.48s   8.486%  ------ ||
|| projectors_grad_precond_batch        :    60      367.93s   9.564%  ------ ||
|| density_batch_interp_deposit         :  1052      399.24s  10.378%  ------ ||
|| integrals_locpot_dbl_grid            :    82      419.71s  10.910%  ------ ||
|| edft_apply_smearing_operator         :   229      486.45s  12.644%  ------ ||
|| basis_add_function_to_box            : 23.48M     598.74s  15.563%  ------ ||
|| ngwf_gradient_build_batch            :    60      676.89s  17.595%  ------ ||
|| density_batch_row_sums               :  1052      841.50s  21.873%  ------ ||
|| ngwf_gradient_batch                  :    60      909.64s  23.645%  ------ ||
|| ngwf_gradient_lnv                    :    15      944.54s  24.552%  ------ ||
|| density_on_dbl_grid                  :   263     1255.22s  32.627%  ------ ||
|| hamiltonian_lhxc_calculate           :   258     1357.98s  35.299%  ------ ||
|| edft_calculate                       :    15     2255.85s  58.637%  ------ ||
|| ngwf_cg_optimise                     :     1     3718.06s  96.645%  ------ ||
|| total_time                           :     1     3847.13s 100.000%  ------ ||
================================================================================
Overhead of generating timer report: 
- 0 ms averaging over threads,
- 6 ms ensuring consistency across MPI ranks,
- 0 ms printing in order.

Job completed: 25-02-2020 15:13 (-0000)

