 +---------------------------------------------------------------+
 |                                                               |
 |        ####### #     # ####### ####### ####### ######         |
 |        #     # ##    # #          #    #       #     #        |
 |        #     # # #   # #          #    #       #     #        |
 |        #     # #  #  # #####      #    #####   ######         |
 |        #     # #   # # #          #    #       #              |
 |        #     # #    ## #          #    #       #              |
 |        ####### #     # #######    #    ####### #              |
 |                                                               |
 |        Linear-Scaling Ab Initio Total Energy Program          |
 |                                                               |
 |          Release for academic collaborators of ODG            |
 |                                             Version 5.3.2.12  |
 |                                                               |
 +---------------------------------------------------------------+
 |                                                               |
 |  Authors:                                                     |
 |  Jacek Dziedzic, Peter D. Haynes, Nicholas D. M. Hine,        |
 |  Arash. A. Mostofi, Mike C. Payne and Chris-Kriton Skylaris   |
 |                                                               |
 |  Contributors:                                                |
 |  J. Aarons, L. Andrinopoulos, P. W. Avraam, R. A. Bell,       |
 |  A. Bhandari, G. A. Bramley, R. J. Charlton, S. J. Clark,     |
 |  R. J. Clements, G. C. Constantinescu, F. Corsetti,           |
 |  N. Corsini, O. Dieguez, S. M. M. Dubois, K. K. B. Duff,      |
 |  J. M. Escartin, A. Greco, H. Helal, Q. O. Hill, L. P. Lee,   |
 |  J.-H. Li, E. B. Linscott, G. Moynihan, D. D. O`Regan,        |
 |  O. K. Okan, M. J. S. Phipps, C. J. Pickard,                  |
 |  J. C. A. Prentice, M. I. J. Probert, L. E. Ratcliff,         |
 |  M. Robinson, A. Ruiz Serrano, J. S. Spencer, E. W. Tait,     |
 |  G. Teobaldi, D. Turban, V. Vitale, K. A. Wilkinson,          |
 |  C. Weber, J. C. Womack, N. Yeung and T. J. Zuehlsdorff       |
 |                                                               |
 |                                   Copyright (c) 2004-2020     |
 |                                                               |
 |  Please cite:                                                 |
 |  "Introducing ONETEP: Linear-scaling density functional       |
 |   simulations on parallel computers".                         |
 |   C.-K. Skylaris, P. D. Haynes, A. A. Mostofi, M. C. Payne.   |
 |   J. Chem. Phys. 122 084119 (2005).                           |
 |                                                               |
 |          in all publications arising from your use of ONETEP. |
 |                                                               |
 +---------------------------------------------------------------+
 |                                                               |
 |   ONETEP is based on developments described in the following  |
 |   publications:                                               |
 |                                                               |
 |  "Nonorthogonal generalized Wannier function pseudopotential  |
 |   plane-wave method".                                         |
 |   C.-K. Skylaris, A. A. Mostofi, P. D. Haynes, O. Dieguez,    |
 |   M. C. Payne.                                                |
 |   Phys. Rev. B 66 035119 (2002).                              |
 |                                                               |
 |  "Preconditioned iterative minimization for linear-scaling    |
 |   electronic structure calculations".                         |
 |   A. A. Mostofi, P. D. Haynes, C.-K. Skylaris, M. C. Payne.   |
 |   J. Chem. Phys. 119(17), pp.8842-8848 (2003).                |
 |                                                               |
 |  "Total-energy calculations on a real space grid with         |
 |   localized functions and a plane-wave basis".                |
 |   A. A. Mostofi, C.-K. Skylaris, P. D. Haynes, M. C. Payne.   |
 |   Comput. Phys. Commun. 147, pp.788-802 (2002).               |
 |                                                               |
 |  "Accurate kinetic energy evaluation in electronic structure  |
 |   calculations with localized functions on real space grids"  |
 |   C.-K. Skylaris, A. A. Mostofi, P. D. Haynes, C. J. Pickard, |
 |   M. C. Payne.                                                |
 |   Comput. Phys. Commun. 140, pp.315-322 (2001).               |
 |                                                               |
 |  "Accurate ionic forces and geometry optimization in linear-  |
 |   scaling density-functional theory with local orbitals"      |
 |   N. D. M. Hine, M. Robinson, P. D. Haynes, C.-K. Skylaris,   |
 |   M. C. Payne, and A. A. Mostofi.                             |
 |   Phys. Rev. B 83 195102 (2011).                              |
 |                                                               |
 +---------------------------------------------------------------+

Job started: 29-02-2020 08:49 (-0000)
 
Reading parameters from file "3.7832992_GO_manual_4x64graphite.dat" ...

WARNING: "cutoff_energy" not specified, but "psinc_spacing" specified.
         Using the latter to set the KE cutoff energy to  732.32021eV,
         thus *overriding* the default.

... done

If your calculation crashes here, before "Checking processes and threads..."
is displayed, then your stack size is insufficient.
If so, use "ulimit -s unlimited" at runtime.
You can disable this check with "check_stack_size F".

Checking processes and threads...
   Determining the default number of threads...
      No default threads set at compilation time: defaulting to 1.
      OpenMP library call suggests 4 threads.
      Hybrid MPI-OpenMP compilation detected.
      Number of MPI processes > 1.
      OMP_NUM_THREADS environment variable present and
      its value matches the one obtained from the OpenMP library call.
      Using this value as default.
      Default threads: 4
      Default applies to threads_max and threads_num_fftboxes.
      Settings in the input file override this default.
   ... done

   Running with 40 MPI processes.
   There are 10 MPI processes running on the same node as the root process.
   Each MPI process is using: 
               1 threads for simulation cell FFTs.
               1 threads for parallel FFT box operations.
               4 threads for loops over batched FFT box operations.
               4 threads in other parallel regions.
... done

Basic input checks...
Resetting ngwf_cg_rotate to TRUE for EDFT calculations
... done

Reading geometry and species blocks from file "3.7832992_GO_manual_4x64graphite.dat" ...
    
  PSINC grid spacing along a1 set to   0.511215680000a0 from input file.
  PSINC grid spacing along a2 set to   0.531284090000a0 from input file.
  PSINC grid spacing along a3 set to   0.507050640000a0 from input file.
  Number of PPD points along a3 set to 1.  This is 
  the default value, it may have been provided also in the input file.
... done
 Writing xyz coordinates to file "3.7832992_GO_manual_4x64graphite.xyz" ... done


--------------------------------------------------------------------------------
---------------------------------- INPUT FILE ----------------------------------
--------------------------------------------------------------------------------

task : singlepoint                                                              
do_properties : true                                                            
dx_format T                                                                     
edft T                                                                          
output_detail VERBOSE                                                           
write_xyz T                                                                     
xc_functional OPTB88                                                            
PSINC_SPACING 0.51121568 0.53128409 0.50705064                                  
paw T                                                                           
pdos_max_l = 2                                                                  
dos_smear  0.1 eV                                                               
popn_calculate T                                                                
PDOS_PSEUDOATOMIC T                                                             
PDOS_REDUCE_SWS F                                                               
PDOS_CONSTRUCT_BASIS F                                                          
PDOS_LOWDIN T                                                                   
PDOS_ORTH_ATOM_BLOCKS F                                                         
PDOS_LCAO_OPTIMIZE F                                                            
pdos_optados_output T                                                           
homo_plot 0                                                                     
lumo_plot 0                                                                     
homo_dens_plot -1                                                               
lumo_dens_plot -1                                                               
%BLOCK SPECIES                                                                  
C C 6 4 9.0                                                                     
%ENDBLOCK SPECIES                                                               
%BLOCK SPECIES_POT                                                              
C "~/pp/paw/c_pbe_abinit.paw"                                                   
%ENDBLOCK SPECIES_POT                                                           
%BLOCK SPECIES_ATOMIC_SET                                                       
C "SOLVE conf=2s2 2p2"                                                          
%ENDBLOCK SPECIES_ATOMIC_SET                                                    
%BLOCK LATTICE_CART                                                             
32.21  0.00  0.00                                                               
0.00 18.59  0.00                                                                
0.00  0.00 71.49                                                                
%ENDBLOCK LATTICE_CART                                                          
%BLOCK POSITIONS_ABS                                                            
C  0.00  0.00  3.57                                                             
C  0.00  0.00 17.87                                                             
C  0.00  0.00 32.17                                                             
C  0.00  0.00 46.47                                                             
C  0.00  0.00 60.77                                                             
C  0.00  4.65  3.57                                                             
C  0.00  4.65 17.87                                                             
C  0.00  4.65 32.17                                                             
C  0.00  4.65 46.47                                                             
C  0.00  4.65 60.77                                                             
C  4.03  2.32  3.57                                                             
C  4.03  2.32 17.87                                                             
C  4.03  2.32 32.17                                                             
C  4.03  2.32 46.47                                                             
C  4.03  2.32 60.77                                                             
C  8.05  0.00  3.57                                                             
C  8.05  0.00 17.87                                                             
C  8.05  0.00 32.17                                                             
C  8.05  0.00 46.47                                                             
C  8.05  0.00 60.77                                                             
C  0.00  9.30  3.57                                                             
C  0.00  9.30 17.87                                                             
C  0.00  9.30 32.17                                                             
C  0.00  9.30 46.47                                                             
C  0.00  9.30 60.77                                                             
C  4.03  6.97  3.57                                                             
C  4.03  6.97 17.87                                                             
C  4.03  6.97 32.17                                                             
C  4.03  6.97 46.47                                                             
C  4.03  6.97 60.77                                                             
C  8.05  4.65  3.57                                                             
C  8.05  4.65 17.87                                                             
C  8.05  4.65 32.17                                                             
C  8.05  4.65 46.47                                                             
C  8.05  4.65 60.77                                                             
C 12.08  2.32  3.57                                                             
C 12.08  2.32 17.87                                                             
C 12.08  2.32 32.17                                                             
C 12.08  2.32 46.47                                                             
C 12.08  2.32 60.77                                                             
C 16.10  0.00  3.57                                                             
C 16.10  0.00 17.87                                                             
C 16.10  0.00 32.17                                                             
C 16.10  0.00 46.47                                                             
C 16.10  0.00 60.77                                                             
C  0.00 13.95  3.57                                                             
C  0.00 13.95 17.87                                                             
C  0.00 13.95 32.17                                                             
C  0.00 13.95 46.47                                                             
C  0.00 13.95 60.77                                                             
C  4.03 11.62  3.57                                                             
C  4.03 11.62 17.87                                                             
C  4.03 11.62 32.17                                                             
C  4.03 11.62 46.47                                                             
C  4.03 11.62 60.77                                                             
C  8.05  9.30  3.57                                                             
C  8.05  9.30 17.87                                                             
C  8.05  9.30 32.17                                                             
C  8.05  9.30 46.47                                                             
C  8.05  9.30 60.77                                                             
C 12.08  6.97  3.57                                                             
C 12.08  6.97 17.87                                                             
C 12.08  6.97 32.17                                                             
C 12.08  6.97 46.47                                                             
C 12.08  6.97 60.77                                                             
C 16.10  4.65  3.57                                                             
C 16.10  4.65 17.87                                                             
C 16.10  4.65 32.17                                                             
C 16.10  4.65 46.47                                                             
C 16.10  4.65 60.77                                                             
C 20.13  2.32  3.57                                                             
C 20.13  2.32 17.87                                                             
C 20.13  2.32 32.17                                                             
C 20.13  2.32 46.47                                                             
C 20.13  2.32 60.77                                                             
C 24.16  0.00  3.57                                                             
C 24.16  0.00 17.87                                                             
C 24.16  0.00 32.17                                                             
C 24.16  0.00 46.47                                                             
C 24.16  0.00 60.77                                                             
C  4.03 16.27  3.57                                                             
C  4.03 16.27 17.87                                                             
C  4.03 16.27 32.17                                                             
C  4.03 16.27 46.47                                                             
C  4.03 16.27 60.77                                                             
C  8.05 13.95  3.57                                                             
C  8.05 13.95 17.87                                                             
C  8.05 13.95 32.17                                                             
C  8.05 13.95 46.47                                                             
C  8.05 13.95 60.77                                                             
C 12.08 11.62  3.57                                                             
C 12.08 11.62 17.87                                                             
C 12.08 11.62 32.17                                                             
C 12.08 11.62 46.47                                                             
C 12.08 11.62 60.77                                                             
C 16.10  9.30  3.57                                                             
C 16.10  9.30 17.87                                                             
C 16.10  9.30 32.17                                                             
C 16.10  9.30 46.47                                                             
C 16.10  9.30 60.77                                                             
C 20.13  6.97  3.57                                                             
C 20.13  6.97 17.87                                                             
C 20.13  6.97 32.17                                                             
C 20.13  6.97 46.47                                                             
C 20.13  6.97 60.77                                                             
C 24.16  4.65  3.57                                                             
C 24.16  4.65 17.87                                                             
C 24.16  4.65 32.17                                                             
C 24.16  4.65 46.47                                                             
C 24.16  4.65 60.77                                                             
C 28.18  2.32  3.57                                                             
C 28.18  2.32 17.87                                                             
C 28.18  2.32 32.17                                                             
C 28.18  2.32 46.47                                                             
C 28.18  2.32 60.77                                                             
C 12.08 16.27  3.57                                                             
C 12.08 16.27 17.87                                                             
C 12.08 16.27 32.17                                                             
C 12.08 16.27 46.47                                                             
C 12.08 16.27 60.77                                                             
C 16.10 13.95  3.57                                                             
C 16.10 13.95 17.87                                                             
C 16.10 13.95 32.17                                                             
C 16.10 13.95 46.47                                                             
C 16.10 13.95 60.77                                                             
C 20.13 11.62  3.57                                                             
C 20.13 11.62 17.87                                                             
C 20.13 11.62 32.17                                                             
C 20.13 11.62 46.47                                                             
C 20.13 11.62 60.77                                                             
C 24.16  9.30  3.57                                                             
C 24.16  9.30 17.87                                                             
C 24.16  9.30 32.17                                                             
C 24.16  9.30 46.47                                                             
C 24.16  9.30 60.77                                                             
C 28.18  6.97  3.57                                                             
C 28.18  6.97 17.87                                                             
C 28.18  6.97 32.17                                                             
C 28.18  6.97 46.47                                                             
C 28.18  6.97 60.77                                                             
C 20.13 16.27  3.57                                                             
C 20.13 16.27 17.87                                                             
C 20.13 16.27 32.17                                                             
C 20.13 16.27 46.47                                                             
C 20.13 16.27 60.77                                                             
C 24.16 13.95  3.57                                                             
C 24.16 13.95 17.87                                                             
C 24.16 13.95 32.17                                                             
C 24.16 13.95 46.47                                                             
C 24.16 13.95 60.77                                                             
C 28.18 11.62  3.57                                                             
C 28.18 11.62 17.87                                                             
C 28.18 11.62 32.17                                                             
C 28.18 11.62 46.47                                                             
C 28.18 11.62 60.77                                                             
C 28.18 16.27  3.57                                                             
C 28.18 16.27 17.87                                                             
C 28.18 16.27 32.17                                                             
C 28.18 16.27 46.47                                                             
C 28.18 16.27 60.77                                                             
C  0.00  0.00 10.72                                                             
C  0.00  0.00 25.02                                                             
C  0.00  0.00 39.32                                                             
C  0.00  0.00 53.62                                                             
C  0.00  0.00 67.92                                                             
C  0.00  4.65 10.72                                                             
C  0.00  4.65 25.02                                                             
C  0.00  4.65 39.32                                                             
C  0.00  4.65 53.62                                                             
C  0.00  4.65 67.92                                                             
C  4.03  2.32 10.72                                                             
C  4.03  2.32 25.02                                                             
C  4.03  2.32 39.32                                                             
C  4.03  2.32 53.62                                                             
C  4.03  2.32 67.92                                                             
C  8.05  0.00 10.72                                                             
C  8.05  0.00 25.02                                                             
C  8.05  0.00 39.32                                                             
C  8.05  0.00 53.62                                                             
C  8.05  0.00 67.92                                                             
C  0.00  9.30 10.72                                                             
C  0.00  9.30 25.02                                                             
C  0.00  9.30 39.32                                                             
C  0.00  9.30 53.62                                                             
C  0.00  9.30 67.92                                                             
C  4.03  6.97 10.72                                                             
C  4.03  6.97 25.02                                                             
C  4.03  6.97 39.32                                                             
C  4.03  6.97 53.62                                                             
C  4.03  6.97 67.92                                                             
C  8.05  4.65 10.72                                                             
C  8.05  4.65 25.02                                                             
C  8.05  4.65 39.32                                                             
C  8.05  4.65 53.62                                                             
C  8.05  4.65 67.92                                                             
C 12.08  2.32 10.72                                                             
C 12.08  2.32 25.02                                                             
C 12.08  2.32 39.32                                                             
C 12.08  2.32 53.62                                                             
C 12.08  2.32 67.92                                                             
C 16.10  0.00 10.72                                                             
C 16.10  0.00 25.02                                                             
C 16.10  0.00 39.32                                                             
C 16.10  0.00 53.62                                                             
C 16.10  0.00 67.92                                                             
C  0.00 13.95 10.72                                                             
C  0.00 13.95 25.02                                                             
C  0.00 13.95 39.32                                                             
C  0.00 13.95 53.62                                                             
C  0.00 13.95 67.92                                                             
C  4.03 11.62 10.72                                                             
C  4.03 11.62 25.02                                                             
C  4.03 11.62 39.32                                                             
C  4.03 11.62 53.62                                                             
C  4.03 11.62 67.92                                                             
C  8.05  9.30 10.72                                                             
C  8.05  9.30 25.02                                                             
C  8.05  9.30 39.32                                                             
C  8.05  9.30 53.62                                                             
C  8.05  9.30 67.92                                                             
C 12.08  6.97 10.72                                                             
C 12.08  6.97 25.02                                                             
C 12.08  6.97 39.32                                                             
C 12.08  6.97 53.62                                                             
C 12.08  6.97 67.92                                                             
C 16.10  4.65 10.72                                                             
C 16.10  4.65 25.02                                                             
C 16.10  4.65 39.32                                                             
C 16.10  4.65 53.62                                                             
C 16.10  4.65 67.92                                                             
C 20.13  2.32 10.72                                                             
C 20.13  2.32 25.02                                                             
C 20.13  2.32 39.32                                                             
C 20.13  2.32 53.62                                                             
C 20.13  2.32 67.92                                                             
C 24.16  0.00 10.72                                                             
C 24.16  0.00 25.02                                                             
C 24.16  0.00 39.32                                                             
C 24.16  0.00 53.62                                                             
C 24.16  0.00 67.92                                                             
C  4.03 16.27 10.72                                                             
C  4.03 16.27 25.02                                                             
C  4.03 16.27 39.32                                                             
C  4.03 16.27 53.62                                                             
C  4.03 16.27 67.92                                                             
C  8.05 13.95 10.72                                                             
C  8.05 13.95 25.02                                                             
C  8.05 13.95 39.32                                                             
C  8.05 13.95 53.62                                                             
C  8.05 13.95 67.92                                                             
C 12.08 11.62 10.72                                                             
C 12.08 11.62 25.02                                                             
C 12.08 11.62 39.32                                                             
C 12.08 11.62 53.62                                                             
C 12.08 11.62 67.92                                                             
C 16.10  9.30 10.72                                                             
C 16.10  9.30 25.02                                                             
C 16.10  9.30 39.32                                                             
C 16.10  9.30 53.62                                                             
C 16.10  9.30 67.92                                                             
C 20.13  6.97 10.72                                                             
C 20.13  6.97 25.02                                                             
C 20.13  6.97 39.32                                                             
C 20.13  6.97 53.62                                                             
C 20.13  6.97 67.92                                                             
C 24.16  4.65 10.72                                                             
C 24.16  4.65 25.02                                                             
C 24.16  4.65 39.32                                                             
C 24.16  4.65 53.62                                                             
C 24.16  4.65 67.92                                                             
C 28.18  2.32 10.72                                                             
C 28.18  2.32 25.02                                                             
C 28.18  2.32 39.32                                                             
C 28.18  2.32 53.62                                                             
C 28.18  2.32 67.92                                                             
C 12.08 16.27 10.72                                                             
C 12.08 16.27 25.02                                                             
C 12.08 16.27 39.32                                                             
C 12.08 16.27 53.62                                                             
C 12.08 16.27 67.92                                                             
C 16.10 13.95 10.72                                                             
C 16.10 13.95 25.02                                                             
C 16.10 13.95 39.32                                                             
C 16.10 13.95 53.62                                                             
C 16.10 13.95 67.92                                                             
C 20.13 11.62 10.72                                                             
C 20.13 11.62 25.02                                                             
C 20.13 11.62 39.32                                                             
C 20.13 11.62 53.62                                                             
C 20.13 11.62 67.92                                                             
C 24.16  9.30 10.72                                                             
C 24.16  9.30 25.02                                                             
C 24.16  9.30 39.32                                                             
C 24.16  9.30 53.62                                                             
C 24.16  9.30 67.92                                                             
C 28.18  6.97 10.72                                                             
C 28.18  6.97 25.02                                                             
C 28.18  6.97 39.32                                                             
C 28.18  6.97 53.62                                                             
C 28.18  6.97 67.92                                                             
C 20.13 16.27 10.72                                                             
C 20.13 16.27 25.02                                                             
C 20.13 16.27 39.32                                                             
C 20.13 16.27 53.62                                                             
C 20.13 16.27 67.92                                                             
C 24.16 13.95 10.72                                                             
C 24.16 13.95 25.02                                                             
C 24.16 13.95 39.32                                                             
C 24.16 13.95 53.62                                                             
C 24.16 13.95 67.92                                                             
C 28.18 11.62 10.72                                                             
C 28.18 11.62 25.02                                                             
C 28.18 11.62 39.32                                                             
C 28.18 11.62 53.62                                                             
C 28.18 11.62 67.92                                                             
C 28.18 16.27 10.72                                                             
C 28.18 16.27 25.02                                                             
C 28.18 16.27 39.32                                                             
C 28.18 16.27 53.62                                                             
C 28.18 16.27 67.92                                                             
C  1.34  2.32  3.57                                                             
C  1.34  2.32 17.87                                                             
C  1.34  2.32 32.17                                                             
C  1.34  2.32 46.47                                                             
C  1.34  2.32 60.77                                                             
C  5.37  0.00  3.57                                                             
C  5.37  0.00 17.87                                                             
C  5.37  0.00 32.17                                                             
C  5.37  0.00 46.47                                                             
C  5.37  0.00 60.77                                                             
C  1.34  6.97  3.57                                                             
C  1.34  6.97 17.87                                                             
C  1.34  6.97 32.17                                                             
C  1.34  6.97 46.47                                                             
C  1.34  6.97 60.77                                                             
C  5.37  4.65  3.57                                                             
C  5.37  4.65 17.87                                                             
C  5.37  4.65 32.17                                                             
C  5.37  4.65 46.47                                                             
C  5.37  4.65 60.77                                                             
C  9.39  2.32  3.57                                                             
C  9.39  2.32 17.87                                                             
C  9.39  2.32 32.17                                                             
C  9.39  2.32 46.47                                                             
C  9.39  2.32 60.77                                                             
C 13.42  0.00  3.57                                                             
C 13.42  0.00 17.87                                                             
C 13.42  0.00 32.17                                                             
C 13.42  0.00 46.47                                                             
C 13.42  0.00 60.77                                                             
C  1.34 11.62  3.57                                                             
C  1.34 11.62 17.87                                                             
C  1.34 11.62 32.17                                                             
C  1.34 11.62 46.47                                                             
C  1.34 11.62 60.77                                                             
C  5.37  9.30  3.57                                                             
C  5.37  9.30 17.87                                                             
C  5.37  9.30 32.17                                                             
C  5.37  9.30 46.47                                                             
C  5.37  9.30 60.77                                                             
C  9.39  6.97  3.57                                                             
C  9.39  6.97 17.87                                                             
C  9.39  6.97 32.17                                                             
C  9.39  6.97 46.47                                                             
C  9.39  6.97 60.77                                                             
C 13.42  4.65  3.57                                                             
C 13.42  4.65 17.87                                                             
C 13.42  4.65 32.17                                                             
C 13.42  4.65 46.47                                                             
C 13.42  4.65 60.77                                                             
C 17.45  2.32  3.57                                                             
C 17.45  2.32 17.87                                                             
C 17.45  2.32 32.17                                                             
C 17.45  2.32 46.47                                                             
C 17.45  2.32 60.77                                                             
C 21.47  0.00  3.57                                                             
C 21.47  0.00 17.87                                                             
C 21.47  0.00 32.17                                                             
C 21.47  0.00 46.47                                                             
C 21.47  0.00 60.77                                                             
C  1.34 16.27  3.57                                                             
C  1.34 16.27 17.87                                                             
C  1.34 16.27 32.17                                                             
C  1.34 16.27 46.47                                                             
C  1.34 16.27 60.77                                                             
C  5.37 13.95  3.57                                                             
C  5.37 13.95 17.87                                                             
C  5.37 13.95 32.17                                                             
C  5.37 13.95 46.47                                                             
C  5.37 13.95 60.77                                                             
C  9.39 11.62  3.57                                                             
C  9.39 11.62 17.87                                                             
C  9.39 11.62 32.17                                                             
C  9.39 11.62 46.47                                                             
C  9.39 11.62 60.77                                                             
C 13.42  9.30  3.57                                                             
C 13.42  9.30 17.87                                                             
C 13.42  9.30 32.17                                                             
C 13.42  9.30 46.47                                                             
C 13.42  9.30 60.77                                                             
C 17.45  6.97  3.57                                                             
C 17.45  6.97 17.87                                                             
C 17.45  6.97 32.17                                                             
C 17.45  6.97 46.47                                                             
C 17.45  6.97 60.77                                                             
C 21.47  4.65  3.57                                                             
C 21.47  4.65 17.87                                                             
C 21.47  4.65 32.17                                                             
C 21.47  4.65 46.47                                                             
C 21.47  4.65 60.77                                                             
C 25.50  2.32  3.57                                                             
C 25.50  2.32 17.87                                                             
C 25.50  2.32 32.17                                                             
C 25.50  2.32 46.47                                                             
C 25.50  2.32 60.77                                                             
C 29.52  0.00  3.57                                                             
C 29.52  0.00 17.87                                                             
C 29.52  0.00 32.17                                                             
C 29.52  0.00 46.47                                                             
C 29.52  0.00 60.77                                                             
C  9.39 16.27  3.57                                                             
C  9.39 16.27 17.87                                                             
C  9.39 16.27 32.17                                                             
C  9.39 16.27 46.47                                                             
C  9.39 16.27 60.77                                                             
C 13.42 13.95  3.57                                                             
C 13.42 13.95 17.87                                                             
C 13.42 13.95 32.17                                                             
C 13.42 13.95 46.47                                                             
C 13.42 13.95 60.77                                                             
C 17.45 11.62  3.57                                                             
C 17.45 11.62 17.87                                                             
C 17.45 11.62 32.17                                                             
C 17.45 11.62 46.47                                                             
C 17.45 11.62 60.77                                                             
C 21.47  9.30  3.57                                                             
C 21.47  9.30 17.87                                                             
C 21.47  9.30 32.17                                                             
C 21.47  9.30 46.47                                                             
C 21.47  9.30 60.77                                                             
C 25.50  6.97  3.57                                                             
C 25.50  6.97 17.87                                                             
C 25.50  6.97 32.17                                                             
C 25.50  6.97 46.47                                                             
C 25.50  6.97 60.77                                                             
C 29.52  4.65  3.57                                                             
C 29.52  4.65 17.87                                                             
C 29.52  4.65 32.17                                                             
C 29.52  4.65 46.47                                                             
C 29.52  4.65 60.77                                                             
C 17.45 16.27  3.57                                                             
C 17.45 16.27 17.87                                                             
C 17.45 16.27 32.17                                                             
C 17.45 16.27 46.47                                                             
C 17.45 16.27 60.77                                                             
C 21.47 13.95  3.57                                                             
C 21.47 13.95 17.87                                                             
C 21.47 13.95 32.17                                                             
C 21.47 13.95 46.47                                                             
C 21.47 13.95 60.77                                                             
C 25.50 11.62  3.57                                                             
C 25.50 11.62 17.87                                                             
C 25.50 11.62 32.17                                                             
C 25.50 11.62 46.47                                                             
C 25.50 11.62 60.77                                                             
C 29.52  9.30  3.57                                                             
C 29.52  9.30 17.87                                                             
C 29.52  9.30 32.17                                                             
C 29.52  9.30 46.47                                                             
C 29.52  9.30 60.77                                                             
C 25.50 16.27  3.57                                                             
C 25.50 16.27 17.87                                                             
C 25.50 16.27 32.17                                                             
C 25.50 16.27 46.47                                                             
C 25.50 16.27 60.77                                                             
C 29.52 13.95  3.57                                                             
C 29.52 13.95 17.87                                                             
C 29.52 13.95 32.17                                                             
C 29.52 13.95 46.47                                                             
C 29.52 13.95 60.77                                                             
C  2.68  0.00 10.72                                                             
C  2.68  0.00 25.02                                                             
C  2.68  0.00 39.32                                                             
C  2.68  0.00 53.62                                                             
C  2.68  0.00 67.92                                                             
C  2.68  4.65 10.72                                                             
C  2.68  4.65 25.02                                                             
C  2.68  4.65 39.32                                                             
C  2.68  4.65 53.62                                                             
C  2.68  4.65 67.92                                                             
C  6.71  2.32 10.72                                                             
C  6.71  2.32 25.02                                                             
C  6.71  2.32 39.32                                                             
C  6.71  2.32 53.62                                                             
C  6.71  2.32 67.92                                                             
C 10.74  0.00 10.72                                                             
C 10.74  0.00 25.02                                                             
C 10.74  0.00 39.32                                                             
C 10.74  0.00 53.62                                                             
C 10.74  0.00 67.92                                                             
C  2.68  9.30 10.72                                                             
C  2.68  9.30 25.02                                                             
C  2.68  9.30 39.32                                                             
C  2.68  9.30 53.62                                                             
C  2.68  9.30 67.92                                                             
C  6.71  6.97 10.72                                                             
C  6.71  6.97 25.02                                                             
C  6.71  6.97 39.32                                                             
C  6.71  6.97 53.62                                                             
C  6.71  6.97 67.92                                                             
C 10.74  4.65 10.72                                                             
C 10.74  4.65 25.02                                                             
C 10.74  4.65 39.32                                                             
C 10.74  4.65 53.62                                                             
C 10.74  4.65 67.92                                                             
C 14.76  2.32 10.72                                                             
C 14.76  2.32 25.02                                                             
C 14.76  2.32 39.32                                                             
C 14.76  2.32 53.62                                                             
C 14.76  2.32 67.92                                                             
C 18.79  0.00 10.72                                                             
C 18.79  0.00 25.02                                                             
C 18.79  0.00 39.32                                                             
C 18.79  0.00 53.62                                                             
C 18.79  0.00 67.92                                                             
C  2.68 13.95 10.72                                                             
C  2.68 13.95 25.02                                                             
C  2.68 13.95 39.32                                                             
C  2.68 13.95 53.62                                                             
C  2.68 13.95 67.92                                                             
C  6.71 11.62 10.72                                                             
C  6.71 11.62 25.02                                                             
C  6.71 11.62 39.32                                                             
C  6.71 11.62 53.62                                                             
C  6.71 11.62 67.92                                                             
C 10.74  9.30 10.72                                                             
C 10.74  9.30 25.02                                                             
C 10.74  9.30 39.32                                                             
C 10.74  9.30 53.62                                                             
C 10.74  9.30 67.92                                                             
C 14.76  6.97 10.72                                                             
C 14.76  6.97 25.02                                                             
C 14.76  6.97 39.32                                                             
C 14.76  6.97 53.62                                                             
C 14.76  6.97 67.92                                                             
C 18.79  4.65 10.72                                                             
C 18.79  4.65 25.02                                                             
C 18.79  4.65 39.32                                                             
C 18.79  4.65 53.62                                                             
C 18.79  4.65 67.92                                                             
C 22.81  2.32 10.72                                                             
C 22.81  2.32 25.02                                                             
C 22.81  2.32 39.32                                                             
C 22.81  2.32 53.62                                                             
C 22.81  2.32 67.92                                                             
C 26.84  0.00 10.72                                                             
C 26.84  0.00 25.02                                                             
C 26.84  0.00 39.32                                                             
C 26.84  0.00 53.62                                                             
C 26.84  0.00 67.92                                                             
C  6.71 16.27 10.72                                                             
C  6.71 16.27 25.02                                                             
C  6.71 16.27 39.32                                                             
C  6.71 16.27 53.62                                                             
C  6.71 16.27 67.92                                                             
C 10.74 13.95 10.72                                                             
C 10.74 13.95 25.02                                                             
C 10.74 13.95 39.32                                                             
C 10.74 13.95 53.62                                                             
C 10.74 13.95 67.92                                                             
C 14.76 11.62 10.72                                                             
C 14.76 11.62 25.02                                                             
C 14.76 11.62 39.32                                                             
C 14.76 11.62 53.62                                                             
C 14.76 11.62 67.92                                                             
C 18.79  9.30 10.72                                                             
C 18.79  9.30 25.02                                                             
C 18.79  9.30 39.32                                                             
C 18.79  9.30 53.62                                                             
C 18.79  9.30 67.92                                                             
C 22.81  6.97 10.72                                                             
C 22.81  6.97 25.02                                                             
C 22.81  6.97 39.32                                                             
C 22.81  6.97 53.62                                                             
C 22.81  6.97 67.92                                                             
C 26.84  4.65 10.72                                                             
C 26.84  4.65 25.02                                                             
C 26.84  4.65 39.32                                                             
C 26.84  4.65 53.62                                                             
C 26.84  4.65 67.92                                                             
C 30.86  2.32 10.72                                                             
C 30.86  2.32 25.02                                                             
C 30.86  2.32 39.32                                                             
C 30.86  2.32 53.62                                                             
C 30.86  2.32 67.92                                                             
C 14.76 16.27 10.72                                                             
C 14.76 16.27 25.02                                                             
C 14.76 16.27 39.32                                                             
C 14.76 16.27 53.62                                                             
C 14.76 16.27 67.92                                                             
C 18.79 13.95 10.72                                                             
C 18.79 13.95 25.02                                                             
C 18.79 13.95 39.32                                                             
C 18.79 13.95 53.62                                                             
C 18.79 13.95 67.92                                                             
C 22.81 11.62 10.72                                                             
C 22.81 11.62 25.02                                                             
C 22.81 11.62 39.32                                                             
C 22.81 11.62 53.62                                                             
C 22.81 11.62 67.92                                                             
C 26.84  9.30 10.72                                                             
C 26.84  9.30 25.02                                                             
C 26.84  9.30 39.32                                                             
C 26.84  9.30 53.62                                                             
C 26.84  9.30 67.92                                                             
C 30.86  6.97 10.72                                                             
C 30.86  6.97 25.02                                                             
C 30.86  6.97 39.32                                                             
C 30.86  6.97 53.62                                                             
C 30.86  6.97 67.92                                                             
C 22.81 16.27 10.72                                                             
C 22.81 16.27 25.02                                                             
C 22.81 16.27 39.32                                                             
C 22.81 16.27 53.62                                                             
C 22.81 16.27 67.92                                                             
C 26.84 13.95 10.72                                                             
C 26.84 13.95 25.02                                                             
C 26.84 13.95 39.32                                                             
C 26.84 13.95 53.62                                                             
C 26.84 13.95 67.92                                                             
C 30.86 11.62 10.72                                                             
C 30.86 11.62 25.02                                                             
C 30.86 11.62 39.32                                                             
C 30.86 11.62 53.62                                                             
C 30.86 11.62 67.92                                                             
C 30.86 16.27 10.72                                                             
C 30.86 16.27 25.02                                                             
C 30.86 16.27 39.32                                                             
C 30.86 16.27 53.62                                                             
C 30.86 16.27 67.92                                                             
%ENDBLOCK POSITIONS_ABS                                                         

--------------------------------------------------------------------------------
-------------------------------- END INPUT FILE --------------------------------
--------------------------------------------------------------------------------


 
<<<<<<<<<<<<<<<<<<<<<<<<<<<<<<<<< Full system >>>>>>>>>>>>>>>>>>>>>>>>>>>>>>>>>>
<<<<<<<<<<<<<<<<<<<<<<<<<<< PAW Dataset information >>>>>>>>>>>>>>>>>>>>>>>>>>>
File: ~/pp/paw/c_pbe_abinit.paw; rc = 1.25 bohr; shape type =  3; rshape = 1.25 bohr;
  Atomic number:  6;  ionic charge:  4.000000
    Partial Wave 1: l = 0
    Partial Wave 2: l = 0
    Partial Wave 3: l = 1
    Partial Wave 4: l = 1
  Core charge supplied for Nonlinear Core Corrections
<<<<<<<<<<<<<<<<<<<<<<<<<<<<<<<<<<<<<<< >>>>>>>>>>>>>>>>>>>>>>>>>>>>>>>>>>>>>>>

-------------------------- Atom counting information ---------------------------
Symbol    Natoms    Nngwfs    Nprojs
  C        640      2560      5120
.......   ......    ......    ......
Totals:    640      2560      5120
--------------------------------------------------------------------------------

=============================== PSINC grid sizes ===============================
                      Simulation cell:   63 x  35 x 141
                              FFT-box:   63 x  35 x 117
                                  PPD:    7 x   5 x   1
Grid space d1=  0.511269841270a0 (KE cutoff=  29.06054Eh = 790.77748eV)
Grid space d2=  0.531142857143a0 (KE cutoff=  26.92659Eh = 732.70972eV)
Grid space d3=  0.507021276596a0 (KE cutoff=  29.54960Eh = 804.08558eV)
================================================================================
  
WARNING in cell_grid_distribute:
Average of less than one 23-slab per node, so workload cannot be
equally balanced between nodes.

********************* Fourier parallelisation information **********************
       Coarse grid (whole simulation cell) dimensions:     63    35   141
          Real-space ('12') slabs/node (min max mean):      3     4     3
         Recip-space ('23') slabs/node (min max mean):      0     1     0
********************************************************************************

********************* Fourier parallelisation information **********************
       Double grid (whole simulation cell) dimensions:    126    70   282
          Real-space ('12') slabs/node (min max mean):      7     8     7
         Recip-space ('23') slabs/node (min max mean):      1     2     1
********************************************************************************

Atom SCF Calculation for C  : Z (AE atom) =   6 : Z (PS atom) =   4
Config String: 2s2 2p2
Orbitals (num,occ):  2     2.00 2.00
Orbitals   (num,l):  2        0    1
Real-space Grid (nr,dr,rmax): 1293    0.0069659443    9.0000000000
Spherical Bessel Basis (nsws,lmax,cutoff):   37    2  161.4736382572
Confining potential (l,width,scale):  0    3.0000000000  100.0000000000
Confining potential (l,width,scale):  1    3.0000000000  100.0000000000
  1         -5.4468762137   -1.3311033486    4.5135257941   -1.6400141247
  2         -5.4563922850   -1.3925089082    4.4492606193   -1.6178955363
  3         -5.4591606672   -1.4162756486    4.4239316220   -1.6104942496
  4         -5.4639338613   -1.4240698331    4.4156521757   -1.6083566999
  5         -5.4657436445   -1.4272842389    4.4122438165   -1.6075116305
  6         -5.4665049591   -1.4285796230    4.4108740217   -1.6071800157
  7         -5.4668137280   -1.4291083664    4.4103163978   -1.6070462938
  8         -5.4669397753   -1.4293243321    4.4100892688   -1.6069921003
  9         -5.4669910134   -1.4294128082    4.4099964732   -1.6069700140
 10         -5.4670118707   -1.4294491026    4.4099585094   -1.6069609935
 11         -5.4670203648   -1.4294640137    4.4099429536   -1.6069573023
 12         -5.4670238269   -1.4294701480    4.4099365706   -1.6069557895
 13         -5.4670252393   -1.4294726750    4.4099339478   -1.6069551687
 14         -5.4670258160   -1.4294737172    4.4099328686   -1.6069549136
 15         -5.4670260518   -1.4294741476    4.4099324241   -1.6069548086
 16         -5.4670261483   -1.4294743256    4.4099322407   -1.6069547654
Atom SCF converged after  16 iterations to a total energy of     -5.46702615

Determining parallel strategy ...
... using space-filling curve
... NGWF load balancing: max     64;  min     64;  average     64
... Projector load balancing: max    128;  min    128;  average    128
... done
Calculating Ewald energy ...
              Ewald: real-space energy =    9485.797634
        Ewald: reciprocal-space energy =       0.411219
         Ewald: (sum_charge)**2 Energy =   10869.714563
         Ewald: (sum_charge**2) Energy =     859.326388
                          Ewald Energy =   -2242.832099
Basis initialisation ...... NGWF spheres initialised
... Projector spheres initialised
... NGWF tight boxes initialised
... Projector tight boxes initialised
... Tight-boxes gathered
... NGWF basis size (local,global):     691636  27895872
... PAW projector initialisation
... done

============================= Charge Augmentation ==============================
                           Aug box size:   11 x  11 x  11
================================================================================

========================== Sparse matrix information ===========================
                        Overlap matrix filling:  40.94%
                        Density kernel filling: 100.00%
              NGWF-Proj overlap matrix filling:  12.19%
                    Aug Overlap matrix filling:  47.03%
                    Hamiltonian matrix filling:  47.03%
                  NGWF diagonal matrix filling:   0.16%
                             KS matrix filling: 100.00% 
                           KSKS matrix filling: 100.00% 
================================================================================

Sparse matrix initialisation ... done
NGWF initialisation ...... done
============ Calculation of NGWF S^-1 using Hotelling algorithm ================ 
         Iteration  |  Frobenius norm and Maximum abs value    (of I-S*S_n^-1)   
               1       0.48927976E+02     0.97427486E+00
               2       0.47612037E+02     0.95041488E+00
               3       0.45665622E+02     0.90744935E+00
               4       0.43178410E+02     0.83619708E+00
               5       0.40227167E+02     0.73132794E+00
               6       0.36850804E+02     0.67091072E+00
               7       0.33408350E+02     0.62476765E+00
               8       0.30119491E+02     0.58574819E+00
               9       0.26502653E+02     0.54033573E+00
              10       0.21863860E+02     0.46739700E+00
              11       0.15854079E+02     0.35312597E+00
              12       0.90992077E+01     0.20697415E+00
              13       0.34568380E+01     0.76413172E-01
              14       0.59661699E+00     0.12058449E-01
              15       0.21044482E-01     0.36941851E-03
              16       0.33771626E-04     0.44469624E-06
              17       0.13251674E-09     0.10554890E-11
              18       0.66713157E-13     0.33306691E-14
================================================================================
Calculating core density ...
================================= Core Density =================================
               Core den box size:   21 x  21 x  21
================================================================================
 ... done
Up spin density kernel initialisation ...... done

Writing density kernel to file "3.7832992_GO_manual_4x64graphite.dkn" ... done

>>> Optimising kernel for current NGWFs:

--------------------------- Ensemble-DFT optimisation --------------------------
Running ScaLAPACK on   40 processor(s).

--------------------------------------------------------------------------------
  Iter                              Commutator    Free_energy(A=E-TS)     DeltaA
#    0                          0.000037627947   -3650.28513951495779  -3.65E+03

Step                       =       0.381966011250
Energy                     =   -3650.285112671966
Entropy (-TS)              =      -0.000026842732
Free energy (A=E-TS)       =   -3650.285139514958
Est. 0K Energy 0.5*(E+A)   =   -3650.285126093462
Residual Non-orthogonality =       0.000000000000
Residual N_electrons       =      -0.000000000260

Spin          Integrated_Ne            Fermi_level     Delta_Fermi_level
   1      2560.000000001690         0.153799515574              1.54E-01

                           Spin 1          
     Orb      H-eigenvalues     Occupancies
       1 |    -0.5669344384    1.0000000000 | 
                          ------
    1276 |     0.1185815441    0.9999852013 | 
    1277 |     0.1191926459    0.9999820515 | 
    1278 |     0.1192064780    0.9999819729 | 
    1279 |     0.1192434375    0.9999817613 | 
    1280 |     0.1198688940    0.9999777788 | 
                 - Gap at zero temperature -
    1281 |     0.1899948157    0.0000108691 | 
    1282 |     0.1900049459    0.0000108344 | 
    1283 |     0.1900151253    0.0000107997 | 
    1284 |     0.1901352103    0.0000103978 | 
    1285 |     0.1901387132    0.0000103863 | 
                          ------
    2560 |     0.9838377829    0.0000000000 | 

                       |  Abs_value |  Threshold | Converged
     Delta_Free_energy |   3.65E+03 |   1.00E-06 |        No
     Delta_Energy      |   3.65E+03 |   1.00E-04 |        No
     Delta_Entropy     |   2.68E-05 |   1.00E-04 |       Yes
     Commutator        |   3.76E-05 |   1.00E-05 |        No
     Delta_Fermi_level |   1.54E-01 |   1.00E-03 |        No

  Line search of the free energy minimum:
  Step_type        Step             Free_energy   Predicted_free_energy
.   Initial    0.000000    -3650.28513951495779
.    Trial1    0.381966    -3650.28670173632918
.    Trial2    0.618034    -3650.28706287198338
. Quadratic    0.684650    -3650.28708153971365    -3650.28708125483081

--------------------------------------------------------------------------------
  Iter                              Commutator    Free_energy(A=E-TS)     DeltaA
#    1                          0.000020263764   -3650.28708153971365  -1.94E-03

Step                       =       0.684650144823
Energy                     =   -3650.287054536316
Entropy (-TS)              =      -0.000027003680
Free energy (A=E-TS)       =   -3650.287081539714
Est. 0K Energy 0.5*(E+A)   =   -3650.287068038015
Residual Non-orthogonality =       0.000000000000
Residual N_electrons       =       0.000000000282

Spin          Integrated_Ne            Fermi_level     Delta_Fermi_level
   1      2559.999999998141         0.151613865048             -2.19E-03

                           Spin 1          
     Orb      H-eigenvalues     Occupancies
       1 |    -0.5715879359    1.0000000000 | 
                          ------
    1276 |     0.1164842392    0.9999847826 | 
    1277 |     0.1169184560    0.9999825463 | 
    1278 |     0.1169353236    0.9999824531 | 
    1279 |     0.1171326162    0.9999813252 | 
    1280 |     0.1175839479    0.9999784648 | 
                 - Gap at zero temperature -
    1281 |     0.1877138515    0.0000112012 | 
    1282 |     0.1877222580    0.0000111715 | 
    1283 |     0.1877395653    0.0000111107 | 
    1284 |     0.1878606148    0.0000106940 | 
    1285 |     0.1878645609    0.0000106807 | 
                          ------
    2560 |     0.9796238229    0.0000000000 | 

                       |  Abs_value |  Threshold | Converged
     Delta_Free_energy |   1.94E-03 |   1.00E-06 |        No
     Delta_Energy      |   1.94E-03 |   1.00E-04 |        No
     Delta_Entropy     |   1.61E-07 |   1.00E-04 |       Yes
     Commutator        |   2.03E-05 |   1.00E-05 |        No
     Delta_Fermi_level |   2.19E-03 |   1.00E-03 |        No

  Line search of the free energy minimum:
  Step_type        Step             Free_energy   Predicted_free_energy
.   Initial    0.000000    -3650.28708153971365
.    Trial1    0.684650    -3650.28616291102890
.    Trial2    0.261513    -3650.28746755390421
. Quadratic    0.241584    -3650.28747021750132    -3650.28747019887078

--------------------------------------------------------------------------------
  Iter                              Commutator    Free_energy(A=E-TS)     DeltaA
#    2                          0.000009480397   -3650.28747021750132  -3.89E-04

Step                       =       0.241583726338
Energy                     =   -3650.287443206126
Entropy (-TS)              =      -0.000027011457
Free energy (A=E-TS)       =   -3650.287470217501
Est. 0K Energy 0.5*(E+A)   =   -3650.287456711814
Residual Non-orthogonality =       0.000000000000
Residual N_electrons       =       0.000000000081

Spin          Integrated_Ne            Fermi_level     Delta_Fermi_level
   1      2559.999999999463         0.151375098606             -2.39E-04

                           Spin 1          
     Orb      H-eigenvalues     Occupancies
       1 |    -0.5721042942    1.0000000000 | 
                          ------
    1276 |     0.1162080706    0.9999849613 | 
    1277 |     0.1167064063    0.9999823985 | 
    1278 |     0.1167229387    0.9999823064 | 
    1279 |     0.1168548231    0.9999815539 | 
    1280 |     0.1173700328    0.9999782951 | 
                 - Gap at zero temperature -
    1281 |     0.1874985134    0.0000111187 | 
    1282 |     0.1875099712    0.0000110785 | 
    1283 |     0.1875257308    0.0000110235 | 
    1284 |     0.1876512779    0.0000105951 | 
    1285 |     0.1876520148    0.0000105926 | 
                          ------
    2560 |     0.9791461239    0.0000000000 | 

                       |  Abs_value |  Threshold | Converged
     Delta_Free_energy |   3.89E-04 |   1.00E-06 |        No
     Delta_Energy      |   3.89E-04 |   1.00E-04 |        No
     Delta_Entropy     |   7.78E-09 |   1.00E-04 |       Yes
     Commutator        |   9.48E-06 |   1.00E-05 |       Yes
     Delta_Fermi_level |   2.39E-04 |   1.00E-03 |       Yes

  Line search of the free energy minimum:
  Step_type        Step             Free_energy   Predicted_free_energy
.   Initial    0.000000    -3650.28747021750132
.    Trial1    0.241584    -3650.28754492805729
.    Trial2    0.531273    -3650.28755634076197
. Quadratic    0.425209    -3650.28756205056561    -3650.28756205495574

--------------------------------------------------------------------------------
  Iter                              Commutator    Free_energy(A=E-TS)     DeltaA
#    3                          0.000006234374   -3650.28756205056561  -9.18E-05

Step                       =       0.425208579425
Energy                     =   -3650.287535031443
Entropy (-TS)              =      -0.000027018751
Free energy (A=E-TS)       =   -3650.287562050566
Est. 0K Energy 0.5*(E+A)   =   -3650.287548541004
Residual Non-orthogonality =       0.000000000000
Residual N_electrons       =      -0.000000000372

Spin          Integrated_Ne            Fermi_level     Delta_Fermi_level
   1      2560.000000002462         0.151054131848             -3.21E-04

                           Spin 1          
     Orb      H-eigenvalues     Occupancies
       1 |    -0.5727839135    1.0000000000 | 
                          ------
    1276 |     0.1158645938    0.9999850678 | 
    1277 |     0.1163973083    0.9999823324 | 
    1278 |     0.1164135632    0.9999822415 | 
    1279 |     0.1165096005    0.9999816947 | 
    1280 |     0.1170589651    0.9999782272 | 
                 - Gap at zero temperature -
    1281 |     0.1871852310    0.0000110917 | 
    1282 |     0.1872068601    0.0000110162 | 
    1283 |     0.1872175857    0.0000109790 | 
    1284 |     0.1873439712    0.0000105495 | 
    1285 |     0.1873483362    0.0000105349 | 
                          ------
    2560 |     0.9785329649    0.0000000000 | 

                       |  Abs_value |  Threshold | Converged
     Delta_Free_energy |   9.18E-05 |   1.00E-06 |        No
     Delta_Energy      |   9.18E-05 |   1.00E-04 |       Yes
     Delta_Entropy     |   7.29E-09 |   1.00E-04 |       Yes
     Commutator        |   6.23E-06 |   1.00E-05 |       Yes
     Delta_Fermi_level |   3.21E-04 |   1.00E-03 |       Yes

  Line search of the free energy minimum:
  Step_type        Step             Free_energy   Predicted_free_energy
.   Initial    0.000000    -3650.28756205056561
.    Trial1    0.425209    -3650.28758297448303
.    Trial2    0.644759    -3650.28752221727609
. Quadratic    0.261275    -3650.28759656444709    -3650.28759656011289

--------------------------------------------------------------------------------
  Iter                              Commutator    Free_energy(A=E-TS)     DeltaA
#    4                          0.000003854744   -3650.28759656444709  -3.45E-05

Step                       =       0.261274954769
Energy                     =   -3650.287569544114
Entropy (-TS)              =      -0.000027020254
Free energy (A=E-TS)       =   -3650.287596564447
Est. 0K Energy 0.5*(E+A)   =   -3650.287583054281
Residual Non-orthogonality =       0.000000000000
Residual N_electrons       =      -0.000000000077

Spin          Integrated_Ne            Fermi_level     Delta_Fermi_level
   1      2560.000000000508         0.150940831864             -1.13E-04

                           Spin 1          
[...]
 C   275 -- C   555       -0.10      5.37000
 C   274 -- C   554       -0.10      5.37000
 C   273 -- C   553       -0.10      5.37000
 C   272 -- C   552       -0.10      5.37000
 C   271 -- C   551       -0.10      5.37000
 C   270 -- C   550       -0.10      5.37000
 C   269 -- C   549       -0.10      5.37000
 C   268 -- C   548       -0.10      5.37000
 C   267 -- C   547       -0.10      5.37000
 C   266 -- C   546       -0.10      5.37000
 C   130 -- C   465       -0.09      5.37000
 C   129 -- C   464       -0.09      5.37000
 C   128 -- C   463       -0.09      5.37000
 C   127 -- C   462       -0.09      5.37000
 C   126 -- C   461       -0.09      5.37000
 C   240 -- C   525       -0.10      5.37000
 C   239 -- C   524       -0.10      5.37000
 C   238 -- C   523       -0.10      5.37000
 C   237 -- C   522       -0.10      5.37000
 C   236 -- C   521       -0.10      5.37000
 C    23 -- C   478       -0.09      5.37202
 C    49 -- C   469       -0.09      5.37202
 C    48 -- C   468       -0.09      5.37202
 C    47 -- C   467       -0.09      5.37202
 C    22 -- C   477       -0.09      5.37202
 C    46 -- C   466       -0.09      5.37202
 C    21 -- C   476       -0.09      5.37202
 C    25 -- C   480       -0.09      5.37202
 C    24 -- C   479       -0.09      5.37202
 C    50 -- C   470       -0.09      5.37202
 C    24 -- C   449       -0.09      5.37202
 C     6 -- C   416       -0.09      5.37202
 C    23 -- C   448       -0.09      5.37202
 C    22 -- C   447       -0.09      5.37202
 C    10 -- C   470       -0.09      5.37202
 C     5 -- C   450       -0.09      5.37202
 C    21 -- C   446       -0.09      5.37202
 C    10 -- C   420       -0.09      5.37202
 C     9 -- C   469       -0.09      5.37202
 C     9 -- C   419       -0.09      5.37202
 C     8 -- C   468       -0.09      5.37202
 C     4 -- C   449       -0.09      5.37202
 C     8 -- C   418       -0.09      5.37202
 C     2 -- C   447       -0.09      5.37202
 C     7 -- C   467       -0.09      5.37202
 C     7 -- C   417       -0.09      5.37202
 C     1 -- C   446       -0.09      5.37202
 C     6 -- C   466       -0.09      5.37202
 C    25 -- C   450       -0.09      5.37202
 C     3 -- C   448       -0.09      5.37202
 C   285 -- C   580       -0.09      5.37202
 C   284 -- C   579       -0.09      5.37202
 C   283 -- C   578       -0.09      5.37202
 C   282 -- C   577       -0.09      5.37202
 C   281 -- C   576       -0.09      5.37202
 C   260 -- C   605       -0.09      5.37202
 C   259 -- C   604       -0.09      5.37202
 C   258 -- C   603       -0.09      5.37202
 C   257 -- C   602       -0.09      5.37202
 C   256 -- C   601       -0.09      5.37202
 C   219 -- C   569       -0.09      5.37202
 C   218 -- C   568       -0.09      5.37202
 C   217 -- C   567       -0.09      5.37202
 C   216 -- C   566       -0.09      5.37202
 C    11 -- C   331       -0.09      5.37202
 C   205 -- C   550       -0.09      5.37202
 C   204 -- C   549       -0.09      5.37202
 C   203 -- C   548       -0.09      5.37202
 C   202 -- C   547       -0.09      5.37202
 C   201 -- C   546       -0.09      5.37202
 C    15 -- C   335       -0.09      5.37202
 C    30 -- C   355       -0.09      5.37202
 C    30 -- C   325       -0.09      5.37202
 C    14 -- C   334       -0.09      5.37202
 C    29 -- C   354       -0.09      5.37202
 C    29 -- C   324       -0.09      5.37202
 C   260 -- C   550       -0.09      5.37202
 C   259 -- C   549       -0.09      5.37202
 C    28 -- C   353       -0.09      5.37202
 C   258 -- C   548       -0.09      5.37202
 C   257 -- C   547       -0.09      5.37202
 C   256 -- C   546       -0.09      5.37202
 C    28 -- C   323       -0.09      5.37202
 C    27 -- C   352       -0.09      5.37202
 C    13 -- C   333       -0.09      5.37202
 C   250 -- C   540       -0.09      5.37202
 C   249 -- C   539       -0.09      5.37202
 C   248 -- C   538       -0.09      5.37202
 C   247 -- C   537       -0.09      5.37202
 C   246 -- C   536       -0.09      5.37202
 C    27 -- C   322       -0.09      5.37202
 C    26 -- C   351       -0.09      5.37202
 C    55 -- C   335       -0.09      5.37202
 C    26 -- C   321       -0.09      5.37202
 C    54 -- C   334       -0.09      5.37202
 C    12 -- C   332       -0.09      5.37202
 C    53 -- C   333       -0.09      5.37202
 C   230 -- C   580       -0.09      5.37202
 C   230 -- C   525       -0.09      5.37202
 C   229 -- C   579       -0.09      5.37202
 C   229 -- C   524       -0.09      5.37202
 C   228 -- C   578       -0.09      5.37202
 C    52 -- C   332       -0.09      5.37202
 C   228 -- C   523       -0.09      5.37202
 C   227 -- C   577       -0.09      5.37202
 C   227 -- C   522       -0.09      5.37202
 C   226 -- C   576       -0.09      5.37202
 C   226 -- C   521       -0.09      5.37202
 C    51 -- C   331       -0.09      5.37202
 C   220 -- C   570       -0.09      5.37202
 C   220 -- C   515       -0.09      5.37202
 C   219 -- C   514       -0.09      5.37202
 C   218 -- C   513       -0.09      5.37202
 C   217 -- C   512       -0.09      5.37202
 C   216 -- C   511       -0.09      5.37202
 C    95 -- C   425       -0.09      5.37202
 C    95 -- C   365       -0.09      5.37202
 C    94 -- C   424       -0.09      5.37202
 C    94 -- C   364       -0.09      5.37202
 C    93 -- C   423       -0.09      5.37202
 C   195 -- C   540       -0.09      5.37202
 C   195 -- C   500       -0.09      5.37202
 C    93 -- C   363       -0.09      5.37202
 C   194 -- C   539       -0.09      5.37202
 C    92 -- C   422       -0.09      5.37202
 C   194 -- C   499       -0.09      5.37202
 C   193 -- C   538       -0.09      5.37202
 C   193 -- C   498       -0.09      5.37202
 C    92 -- C   362       -0.09      5.37202
 C   192 -- C   537       -0.09      5.37202
 C    91 -- C   421       -0.09      5.37202
 C   192 -- C   497       -0.09      5.37202
 C   191 -- C   536       -0.09      5.37202
 C   191 -- C   496       -0.09      5.37202
 C    91 -- C   361       -0.09      5.37202
 C    85 -- C   355       -0.09      5.37202
 C   180 -- C   515       -0.09      5.37202
 C    40 -- C   365       -0.09      5.37202
 C    84 -- C   354       -0.09      5.37202
 C   179 -- C   514       -0.09      5.37202
 C    83 -- C   353       -0.09      5.37202
 C   178 -- C   513       -0.09      5.37202
 C   177 -- C   512       -0.09      5.37202
 C    82 -- C   352       -0.09      5.37202
 C    39 -- C   364       -0.09      5.37202
 C   176 -- C   511       -0.09      5.37202
 C    81 -- C   351       -0.09      5.37202
 C    38 -- C   363       -0.09      5.37202
 C    37 -- C   362       -0.09      5.37202
 C    36 -- C   361       -0.09      5.37202
 C    65 -- C   395       -0.09      5.37202
 C    65 -- C   345       -0.09      5.37202
 C    64 -- C   394       -0.09      5.37202
 C    64 -- C   344       -0.09      5.37202
 C    63 -- C   393       -0.09      5.37202
 C    63 -- C   343       -0.09      5.37202
 C    62 -- C   392       -0.09      5.37202
 C    62 -- C   342       -0.09      5.37202
 C    61 -- C   391       -0.09      5.37202
 C    61 -- C   341       -0.09      5.37202
 C   120 -- C   395       -0.09      5.37202
 C    55 -- C   385       -0.09      5.37202
 C   119 -- C   394       -0.09      5.37202
 C   118 -- C   393       -0.09      5.37202
 C   117 -- C   392       -0.09      5.37202
 C    54 -- C   384       -0.09      5.37202
 C   116 -- C   391       -0.09      5.37202
 C    53 -- C   383       -0.09      5.37202
 C    52 -- C   382       -0.09      5.37202
 C    51 -- C   381       -0.09      5.37202
 C   150 -- C   440       -0.09      5.37202
 C   149 -- C   439       -0.09      5.37202
 C   148 -- C   438       -0.09      5.37202
 C   147 -- C   437       -0.09      5.37202
 C   146 -- C   436       -0.09      5.37202
 C   135 -- C   460       -0.09      5.37202
 C   134 -- C   459       -0.09      5.37202
 C   133 -- C   458       -0.09      5.37202
 C   132 -- C   457       -0.09      5.37202
 C   131 -- C   456       -0.09      5.37202
 C   106 -- C   436       -0.09      5.37202
 C   106 -- C   376       -0.09      5.37202
 C    80 -- C   410       -0.09      5.37202
 C    79 -- C   409       -0.09      5.37202
 C    78 -- C   408       -0.09      5.37202
 C    77 -- C   407       -0.09      5.37202
 C    76 -- C   406       -0.09      5.37202
 C   135 -- C   410       -0.09      5.37202
 C   134 -- C   409       -0.09      5.37202
 C   133 -- C   408       -0.09      5.37202
 C   132 -- C   407       -0.09      5.37202
 C   131 -- C   406       -0.09      5.37202
 C   110 -- C   440       -0.09      5.37202
 C   110 -- C   380       -0.09      5.37202
 C   109 -- C   439       -0.09      5.37202
 C   109 -- C   379       -0.09      5.37202
 C   108 -- C   438       -0.09      5.37202
 C   108 -- C   378       -0.09      5.37202
 C   107 -- C   437       -0.09      5.37202
 C   107 -- C   377       -0.09      5.37202
 C   215 -- C   635       -0.09      5.38000
 C   214 -- C   634       -0.09      5.38000
 C   213 -- C   633       -0.09      5.38000
 C   212 -- C   632       -0.09      5.38000
 C   211 -- C   631       -0.09      5.38000
 C   190 -- C   620       -0.09      5.38000
 C   189 -- C   619       -0.09      5.38000
 C   188 -- C   618       -0.09      5.38000
 C   187 -- C   617       -0.09      5.38000
 C   186 -- C   616       -0.09      5.38000
 C   175 -- C   595       -0.09      5.38000
 C   174 -- C   594       -0.09      5.38000
 C   173 -- C   593       -0.09      5.38000
 C   172 -- C   592       -0.09      5.38000
 C   171 -- C   591       -0.09      5.38000
 C   245 -- C   640       -0.09      5.38000
 C   244 -- C   639       -0.09      5.38000
 C   243 -- C   638       -0.09      5.38000
 C   242 -- C   637       -0.09      5.38000
 C   241 -- C   636       -0.09      5.38000
==================================================


=================== Orbital energy and occupancy information ===================

      Total number of orbitals:    2560
        Occupancy sum (kernel):    1280.000000000
   Occupancy sum (eigenvalues):    1280.000000000
                 HOMO-LUMO gap:       0.000016228 Eh
                 Mid-gap level:       0.242286261 Eh

                        Orbital | Energy (Eh) | Occupancy
                            1    -0.510822847   1.0000000
                        .......   ...........   .........
                         1272     0.171396710   0.9999887
                         1273     0.171855892   0.9999869
                         1274     0.171866993   0.9999869
                         1275     0.174048475   0.9999739
                         1276     0.174066787   0.9999738
                         1277     0.174517721   0.9999697
                         1278     0.174535982   0.9999696
                         1279     0.174944159   0.9999654
                         1280     0.175411460   0.9999599
                         1281     0.242278147   0.0000168
                        ....... -- gap at 0K -- .........
                         1282     0.242294376   0.0000167
                         1283     0.242526719   0.0000155
                         1284     0.242542855   0.0000155
                         1285     0.242560309   0.0000154
                         1286     0.242587586   0.0000153
                         1287     0.242785677   0.0000143
                         1288     0.242818471   0.0000142
                         1289     0.242845564   0.0000141
                         1290     0.242920454   0.0000137
                         1291     0.242937630   0.0000137
                        .......   ...........   .........
                         2560     1.098148106   0.0000000

================================================================================

===================== Writing canonical molecular orbitals =====================
| Orbital  Energy (eV)  Norm     |
| HOMO      6.59272385  1.000000 | Writing "3.7832992_GO_manual_4x64graphite_HOMO.cube" ... done
Writing "3.7832992_GO_manual_4x64graphite_HOMO.dx" ... done
| LUMO      6.59316544  1.000000 | Writing "3.7832992_GO_manual_4x64graphite_LUMO.cube" ... done
Writing "3.7832992_GO_manual_4x64graphite_LUMO.dx" ... done
================================================================================
 
===================== Density of States (DOS) calculation ======================
Writing "3.7832992_GO_manual_4x64graphite_DOS.txt" ...  done
================================================================================
 
Writing bands to file "3.7832992_GO_manual_4x64graphite.val_bands" ... done
 
================ Projected Density of States (pDOS) calculation ================
 
Constructing AM resolved functions  ...... done
Writing NGWF plot files in formats: CUBE DX ...  done
 
Performing overlap integrals ...  done
 
Computing pDOS weights ...  done
 
All bands spilling parameter =   3.01 %
Occupancy-weighted spilling parameter =   0.93 %
 
 => Outputting data for OptaDOS <=
 
Writing pDOS weights to file "3.7832992_GO_manual_4x64graphite.val_pdos_bin" ... done
 
Writing band gradients to file "3.7832992_GO_manual_4x64graphite.val_dome_bin" ... done
 
Writing Castep output cell file to "3.7832992_GO_manual_4x64graphite-out.cell" ... done
 
 => Computing Gaussian smeared pDOS <= 
Writing "3.7832992_GO_manual_4x64graphite_PDOS.txt" ...  done
 
 => Computing Occupancy-weighted Gaussian smeared pDOS <= 
Writing "3.7832992_GO_manual_4x64graphite_occ_PDOS.txt" ...  done
  => Band centres: 
 S band centre of group 1:  -15.601234 eV
 P band centre of group 1:   -8.485538 eV
  Band centres done. <=
  => Integrated number of electrons in each AM band: 
 S num electrons of group 1:  574.065534
 P num electrons of group 1: 1962.237787
  Integrated number of electrons done. <=
================================================================================

------------------------------ TIMING INFORMATION ------------------------------
AVERAGE TIME:    3068.652s on     40 node(s)                                    
TOTAL TIME:      3068.653s on     40 node(s)                                    
================= AVERAGE TIMINGS FROM ALL NODES (CUMULATIVE) ==================
|| TAG                                    #calls    cpu time   %total  Gflops ||
|| work_imbalance                       :     1        0.00s   0.000%  ------ ||
|| paw_tcore_hartree_on_grid            :     1        0.01s   0.000%  ------ ||
|| paw_tcore_density                    :     1        0.01s   0.000%  ------ ||
|| paw_sphere_density_on_grid           :     1        0.01s   0.000%  ------ ||
|| sparse_set_to_garbage                :   135        0.02s   0.001%  ------ ||
|| paw_dij_hartree                      :   275        0.03s   0.001%  ------ ||
|| pseudo_make_structure_factor         :     1        0.06s   0.002%  ------ ||
|| basis_extract_function_from_box      :  1536        0.06s   0.002%  ------ ||
|| paw_species_calc_proj_prec_mat       :     1        0.12s   0.004%  ------ ||
|| paw_dataset_init                     :     1        0.15s   0.005%  ------ ||
|| density_init_guess_real              :     1        0.17s   0.005%  ------ ||
|| ngwfs_initialise_from_radial         :     2        0.67s   0.022%  ------ ||
|| restart_kernel_write                 :    13        0.72s   0.023%  ------ ||
|| sparse_init                          :     1        0.98s   0.032%  ------ ||
|| dense_normal_eigensolve              :     1        0.99s   0.032%  ------ ||
|| hartree_on_grid                      :   206        1.43s   0.047%  ------ ||
|| projectors_init_fftbox_recip         :   121        2.42s   0.079%  ------ ||
|| ewald_calculate_energy               :     1        3.17s   0.103%  ------ ||
|| fourier_apply_box_pair               :  2272        3.80s   0.124% 555.076 ||
|| basis_copy_function_to_box           : 19712        4.12s   0.134%  ------ ||
|| augmentation_screen_dij              :   211        4.79s   0.156%  ------ ||
|| sparse_embed_hotelling_invert_embed  :    23        6.53s   0.213%  ------ ||
|| sw_init                              :     1        6.74s   0.220%  ------ ||
|| ngwf_gradient_coeffs                 :    12        8.81s   0.287%  ------ ||
|| sparse_trace                         :  2486       11.39s   0.371%  ------ ||
|| fourier_apply_cell_backward          :  6357       16.81s   0.548%  50.490 ||
|| cell_grid_extract_box_real           :  8380       17.52s   0.571%  ------ ||
|| fourier_apply_cell_forward           :  5946       18.77s   0.612%  42.299 ||
|| cell_grid_deposit_box_real           : 26544       20.27s   0.660%  ------ ||
|| paw_dij_xc                           :   275       25.45s   0.830%  ------ ||
|| aug_nonlocal_mat                     :   263       33.89s   1.104%  ------ ||
|| augmentation_density_on_grid         :   206       37.18s   1.211%  ------ ||
|| density_fftbox_deposit_to_cell       : 13184       42.56s   1.387%  ------ ||
|| hamiltonian_energy_components        :     3       47.32s   1.542%  ------ ||
|| function_ops_brappd_ketppd           :    48       47.86s   1.560%  ------ ||
|| eigenstates_pdos                     :     1       53.44s   1.741%  ------ ||
|| projectors_func_ovlp_box             :    24       53.48s   1.743%  ------ ||
|| eigenstates_calculate                :     1       57.89s   1.887%  ------ ||
|| nlxc_vdw_energy                      :   410       70.29s   2.290%  ------ ||
|| xc_energy_potential                  :   205       71.75s   2.338%  ------ ||
|| integrals_kinetic                    :    23       76.55s   2.495%  ------ ||
|| dense_eigensolve                     :   179       86.90s   2.832%  ------ ||
|| sparse_product                       :  2530      101.84s   3.319%  ------ ||
|| potential_apply_to_ngwf_batch        :   264      104.69s   3.411%  ------ ||
|| properties_calculate                 :     1      107.20s   3.493%  ------ ||
|| restart_ngwfs_tightbox_output        :    11      122.82s   4.002%  ------ ||
|| basis_dot_function_with_box          : 6.157M     164.83s   5.371%  ------ ||
|| fourier_apply_box                    : 62112      193.36s   6.301% 976.150 ||
|| edft_diag_ngwf_ham                   :   178      196.19s   6.393%  ------ ||
|| projectors_gradient_batch            :    48      211.74s   6.900%  ------ ||
|| integrals_locpot_mat_els_batch       :   264      220.84s   7.197%  ------ ||
|| density_fftbox_interpolate_multiply  : 13184      253.06s   8.247%  ------ ||
|| projectors_grad_precond_batch        :    48      299.31s   9.754%  ------ ||
|| integrals_locpot_dbl_grid            :    66      326.72s  10.647%  ------ ||
|| density_batch_interp_deposit         :   824      328.30s  10.698%  ------ ||
|| edft_apply_smearing_operator         :   178      384.04s  12.515%  ------ ||
|| basis_add_function_to_box            : 17.04M     444.45s  14.484%  ------ ||
|| ngwf_gradient_build_batch            :    48      548.08s  17.860%  ------ ||
|| density_batch_row_sums               :   824      628.30s  20.475%  ------ ||
|| ngwf_gradient_batch                  :    48      729.94s  23.787%  ------ ||
|| ngwf_gradient_lnv                    :    12      754.44s  24.586%  ------ ||
|| density_on_dbl_grid                  :   206      967.87s  31.540%  ------ ||
|| hamiltonian_lhxc_calculate           :   201     1054.00s  34.347%  ------ ||
|| edft_calculate                       :    12     1748.59s  56.982%  ------ ||
|| ngwf_cg_optimise                     :     1     2936.01s  95.678%  ------ ||
|| total_time                           :     1     3068.65s 100.000%  ------ ||
================================================================================
Overhead of generating timer report: 
- 0 ms averaging over threads,
- 6 ms ensuring consistency across MPI ranks,
- 0 ms printing in order.

Job completed: 29-02-2020 09:40 (-0000)

