 +---------------------------------------------------------------+
 |                                                               |
 |        ####### #     # ####### ####### ####### ######         |
 |        #     # ##    # #          #    #       #     #        |
 |        #     # # #   # #          #    #       #     #        |
 |        #     # #  #  # #####      #    #####   ######         |
 |        #     # #   # # #          #    #       #              |
 |        #     # #    ## #          #    #       #              |
 |        ####### #     # #######    #    ####### #              |
 |                                                               |
 |        Linear-Scaling Ab Initio Total Energy Program          |
 |                                                               |
 |          Release for academic collaborators of ODG            |
 |                                             Version 5.3.2.12  |
 |                                                               |
 +---------------------------------------------------------------+
 |                                                               |
 |  Authors:                                                     |
 |  Jacek Dziedzic, Peter D. Haynes, Nicholas D. M. Hine,        |
 |  Arash. A. Mostofi, Mike C. Payne and Chris-Kriton Skylaris   |
 |                                                               |
 |  Contributors:                                                |
 |  J. Aarons, L. Andrinopoulos, P. W. Avraam, R. A. Bell,       |
 |  A. Bhandari, G. A. Bramley, R. J. Charlton, S. J. Clark,     |
 |  R. J. Clements, G. C. Constantinescu, F. Corsetti,           |
 |  N. Corsini, O. Dieguez, S. M. M. Dubois, K. K. B. Duff,      |
 |  J. M. Escartin, A. Greco, H. Helal, Q. O. Hill, L. P. Lee,   |
 |  J.-H. Li, E. B. Linscott, G. Moynihan, D. D. O`Regan,        |
 |  O. K. Okan, M. J. S. Phipps, C. J. Pickard,                  |
 |  J. C. A. Prentice, M. I. J. Probert, L. E. Ratcliff,         |
 |  M. Robinson, A. Ruiz Serrano, J. S. Spencer, E. W. Tait,     |
 |  G. Teobaldi, D. Turban, V. Vitale, K. A. Wilkinson,          |
 |  C. Weber, J. C. Womack, N. Yeung and T. J. Zuehlsdorff       |
 |                                                               |
 |                                   Copyright (c) 2004-2020     |
 |                                                               |
 |  Please cite:                                                 |
 |  "Introducing ONETEP: Linear-scaling density functional       |
 |   simulations on parallel computers".                         |
 |   C.-K. Skylaris, P. D. Haynes, A. A. Mostofi, M. C. Payne.   |
 |   J. Chem. Phys. 122 084119 (2005).                           |
 |                                                               |
 |          in all publications arising from your use of ONETEP. |
 |                                                               |
 +---------------------------------------------------------------+
 |                                                               |
 |   ONETEP is based on developments described in the following  |
 |   publications:                                               |
 |                                                               |
 |  "Nonorthogonal generalized Wannier function pseudopotential  |
 |   plane-wave method".                                         |
 |   C.-K. Skylaris, A. A. Mostofi, P. D. Haynes, O. Dieguez,    |
 |   M. C. Payne.                                                |
 |   Phys. Rev. B 66 035119 (2002).                              |
 |                                                               |
 |  "Preconditioned iterative minimization for linear-scaling    |
 |   electronic structure calculations".                         |
 |   A. A. Mostofi, P. D. Haynes, C.-K. Skylaris, M. C. Payne.   |
 |   J. Chem. Phys. 119(17), pp.8842-8848 (2003).                |
 |                                                               |
 |  "Total-energy calculations on a real space grid with         |
 |   localized functions and a plane-wave basis".                |
 |   A. A. Mostofi, C.-K. Skylaris, P. D. Haynes, M. C. Payne.   |
 |   Comput. Phys. Commun. 147, pp.788-802 (2002).               |
 |                                                               |
 |  "Accurate kinetic energy evaluation in electronic structure  |
 |   calculations with localized functions on real space grids"  |
 |   C.-K. Skylaris, A. A. Mostofi, P. D. Haynes, C. J. Pickard, |
 |   M. C. Payne.                                                |
 |   Comput. Phys. Commun. 140, pp.315-322 (2001).               |
 |                                                               |
 |  "Accurate ionic forces and geometry optimization in linear-  |
 |   scaling density-functional theory with local orbitals"      |
 |   N. D. M. Hine, M. Robinson, P. D. Haynes, C.-K. Skylaris,   |
 |   M. C. Payne, and A. A. Mostofi.                             |
 |   Phys. Rev. B 83 195102 (2011).                              |
 |                                                               |
 +---------------------------------------------------------------+

Job started: 29-02-2020 08:55 (-0000)
 
Reading parameters from file "3.8369616_GO_manual_4x64graphite.dat" ...

WARNING: "cutoff_energy" not specified, but "psinc_spacing" specified.
         Using the latter to set the KE cutoff energy to  732.32021eV,
         thus *overriding* the default.

... done

If your calculation crashes here, before "Checking processes and threads..."
is displayed, then your stack size is insufficient.
If so, use "ulimit -s unlimited" at runtime.
You can disable this check with "check_stack_size F".

Checking processes and threads...
   Determining the default number of threads...
      No default threads set at compilation time: defaulting to 1.
      OpenMP library call suggests 4 threads.
      Hybrid MPI-OpenMP compilation detected.
      Number of MPI processes > 1.
      OMP_NUM_THREADS environment variable present and
      its value matches the one obtained from the OpenMP library call.
      Using this value as default.
      Default threads: 4
      Default applies to threads_max and threads_num_fftboxes.
      Settings in the input file override this default.
   ... done

   Running with 40 MPI processes.
   There are 10 MPI processes running on the same node as the root process.
   Each MPI process is using: 
               1 threads for simulation cell FFTs.
               1 threads for parallel FFT box operations.
               4 threads for loops over batched FFT box operations.
               4 threads in other parallel regions.
... done

Basic input checks...
Resetting ngwf_cg_rotate to TRUE for EDFT calculations
... done

Reading geometry and species blocks from file "3.8369616_GO_manual_4x64graphite.dat" ...
    
  PSINC grid spacing along a1 set to   0.511215680000a0 from input file.
  PSINC grid spacing along a2 set to   0.531284090000a0 from input file.
  PSINC grid spacing along a3 set to   0.507050450000a0 from input file.
  Number of PPD points along a3 set to 1.  This is 
  the default value, it may have been provided also in the input file.
... done
 Writing xyz coordinates to file "3.8369616_GO_manual_4x64graphite.xyz" ... done


--------------------------------------------------------------------------------
---------------------------------- INPUT FILE ----------------------------------
--------------------------------------------------------------------------------

task : singlepoint                                                              
do_properties : true                                                            
dx_format T                                                                     
edft T                                                                          
output_detail VERBOSE                                                           
write_xyz T                                                                     
xc_functional OPTB88                                                            
PSINC_SPACING 0.51121568 0.53128409 0.50705045                                  
paw T                                                                           
pdos_max_l = 2                                                                  
dos_smear  0.1 eV                                                               
popn_calculate T                                                                
PDOS_PSEUDOATOMIC T                                                             
PDOS_REDUCE_SWS F                                                               
PDOS_CONSTRUCT_BASIS F                                                          
PDOS_LOWDIN T                                                                   
PDOS_ORTH_ATOM_BLOCKS F                                                         
PDOS_LCAO_OPTIMIZE F                                                            
pdos_optados_output T                                                           
homo_plot 0                                                                     
lumo_plot 0                                                                     
homo_dens_plot -1                                                               
lumo_dens_plot -1                                                               
%BLOCK SPECIES                                                                  
C C 6 4 9.0                                                                     
%ENDBLOCK SPECIES                                                               
%BLOCK SPECIES_POT                                                              
C "~/pp/paw/c_pbe_abinit.paw"                                                   
%ENDBLOCK SPECIES_POT                                                           
%BLOCK SPECIES_ATOMIC_SET                                                       
C "SOLVE conf=2s2 2p2"                                                          
%ENDBLOCK SPECIES_ATOMIC_SET                                                    
%BLOCK LATTICE_CART                                                             
32.21  0.00  0.00                                                               
0.00 18.59  0.00                                                                
0.00  0.00 72.51                                                                
%ENDBLOCK LATTICE_CART                                                          
%BLOCK POSITIONS_ABS                                                            
C  0.00  0.00  3.63                                                             
C  0.00  0.00 18.13                                                             
C  0.00  0.00 32.63                                                             
C  0.00  0.00 47.13                                                             
C  0.00  0.00 61.63                                                             
C  0.00  4.65  3.63                                                             
C  0.00  4.65 18.13                                                             
C  0.00  4.65 32.63                                                             
C  0.00  4.65 47.13                                                             
C  0.00  4.65 61.63                                                             
C  4.03  2.32  3.63                                                             
C  4.03  2.32 18.13                                                             
C  4.03  2.32 32.63                                                             
C  4.03  2.32 47.13                                                             
C  4.03  2.32 61.63                                                             
C  8.05  0.00  3.63                                                             
C  8.05  0.00 18.13                                                             
C  8.05  0.00 32.63                                                             
C  8.05  0.00 47.13                                                             
C  8.05  0.00 61.63                                                             
C  0.00  9.30  3.63                                                             
C  0.00  9.30 18.13                                                             
C  0.00  9.30 32.63                                                             
C  0.00  9.30 47.13                                                             
C  0.00  9.30 61.63                                                             
C  4.03  6.97  3.63                                                             
C  4.03  6.97 18.13                                                             
C  4.03  6.97 32.63                                                             
C  4.03  6.97 47.13                                                             
C  4.03  6.97 61.63                                                             
C  8.05  4.65  3.63                                                             
C  8.05  4.65 18.13                                                             
C  8.05  4.65 32.63                                                             
C  8.05  4.65 47.13                                                             
C  8.05  4.65 61.63                                                             
C 12.08  2.32  3.63                                                             
C 12.08  2.32 18.13                                                             
C 12.08  2.32 32.63                                                             
C 12.08  2.32 47.13                                                             
C 12.08  2.32 61.63                                                             
C 16.10  0.00  3.63                                                             
C 16.10  0.00 18.13                                                             
C 16.10  0.00 32.63                                                             
C 16.10  0.00 47.13                                                             
C 16.10  0.00 61.63                                                             
C  0.00 13.95  3.63                                                             
C  0.00 13.95 18.13                                                             
C  0.00 13.95 32.63                                                             
C  0.00 13.95 47.13                                                             
C  0.00 13.95 61.63                                                             
C  4.03 11.62  3.63                                                             
C  4.03 11.62 18.13                                                             
C  4.03 11.62 32.63                                                             
C  4.03 11.62 47.13                                                             
C  4.03 11.62 61.63                                                             
C  8.05  9.30  3.63                                                             
C  8.05  9.30 18.13                                                             
C  8.05  9.30 32.63                                                             
C  8.05  9.30 47.13                                                             
C  8.05  9.30 61.63                                                             
C 12.08  6.97  3.63                                                             
C 12.08  6.97 18.13                                                             
C 12.08  6.97 32.63                                                             
C 12.08  6.97 47.13                                                             
C 12.08  6.97 61.63                                                             
C 16.10  4.65  3.63                                                             
C 16.10  4.65 18.13                                                             
C 16.10  4.65 32.63                                                             
C 16.10  4.65 47.13                                                             
C 16.10  4.65 61.63                                                             
C 20.13  2.32  3.63                                                             
C 20.13  2.32 18.13                                                             
C 20.13  2.32 32.63                                                             
C 20.13  2.32 47.13                                                             
C 20.13  2.32 61.63                                                             
C 24.16  0.00  3.63                                                             
C 24.16  0.00 18.13                                                             
C 24.16  0.00 32.63                                                             
C 24.16  0.00 47.13                                                             
C 24.16  0.00 61.63                                                             
C  4.03 16.27  3.63                                                             
C  4.03 16.27 18.13                                                             
C  4.03 16.27 32.63                                                             
C  4.03 16.27 47.13                                                             
C  4.03 16.27 61.63                                                             
C  8.05 13.95  3.63                                                             
C  8.05 13.95 18.13                                                             
C  8.05 13.95 32.63                                                             
C  8.05 13.95 47.13                                                             
C  8.05 13.95 61.63                                                             
C 12.08 11.62  3.63                                                             
C 12.08 11.62 18.13                                                             
C 12.08 11.62 32.63                                                             
C 12.08 11.62 47.13                                                             
C 12.08 11.62 61.63                                                             
C 16.10  9.30  3.63                                                             
C 16.10  9.30 18.13                                                             
C 16.10  9.30 32.63                                                             
C 16.10  9.30 47.13                                                             
C 16.10  9.30 61.63                                                             
C 20.13  6.97  3.63                                                             
C 20.13  6.97 18.13                                                             
C 20.13  6.97 32.63                                                             
C 20.13  6.97 47.13                                                             
C 20.13  6.97 61.63                                                             
C 24.16  4.65  3.63                                                             
C 24.16  4.65 18.13                                                             
C 24.16  4.65 32.63                                                             
C 24.16  4.65 47.13                                                             
C 24.16  4.65 61.63                                                             
C 28.18  2.32  3.63                                                             
C 28.18  2.32 18.13                                                             
C 28.18  2.32 32.63                                                             
C 28.18  2.32 47.13                                                             
C 28.18  2.32 61.63                                                             
C 12.08 16.27  3.63                                                             
C 12.08 16.27 18.13                                                             
C 12.08 16.27 32.63                                                             
C 12.08 16.27 47.13                                                             
C 12.08 16.27 61.63                                                             
C 16.10 13.95  3.63                                                             
C 16.10 13.95 18.13                                                             
C 16.10 13.95 32.63                                                             
C 16.10 13.95 47.13                                                             
C 16.10 13.95 61.63                                                             
C 20.13 11.62  3.63                                                             
C 20.13 11.62 18.13                                                             
C 20.13 11.62 32.63                                                             
C 20.13 11.62 47.13                                                             
C 20.13 11.62 61.63                                                             
C 24.16  9.30  3.63                                                             
C 24.16  9.30 18.13                                                             
C 24.16  9.30 32.63                                                             
C 24.16  9.30 47.13                                                             
C 24.16  9.30 61.63                                                             
C 28.18  6.97  3.63                                                             
C 28.18  6.97 18.13                                                             
C 28.18  6.97 32.63                                                             
C 28.18  6.97 47.13                                                             
C 28.18  6.97 61.63                                                             
C 20.13 16.27  3.63                                                             
C 20.13 16.27 18.13                                                             
C 20.13 16.27 32.63                                                             
C 20.13 16.27 47.13                                                             
C 20.13 16.27 61.63                                                             
C 24.16 13.95  3.63                                                             
C 24.16 13.95 18.13                                                             
C 24.16 13.95 32.63                                                             
C 24.16 13.95 47.13                                                             
C 24.16 13.95 61.63                                                             
C 28.18 11.62  3.63                                                             
C 28.18 11.62 18.13                                                             
C 28.18 11.62 32.63                                                             
C 28.18 11.62 47.13                                                             
C 28.18 11.62 61.63                                                             
C 28.18 16.27  3.63                                                             
C 28.18 16.27 18.13                                                             
C 28.18 16.27 32.63                                                             
C 28.18 16.27 47.13                                                             
C 28.18 16.27 61.63                                                             
C  0.00  0.00 10.88                                                             
C  0.00  0.00 25.38                                                             
C  0.00  0.00 39.88                                                             
C  0.00  0.00 54.38                                                             
C  0.00  0.00 68.88                                                             
C  0.00  4.65 10.88                                                             
C  0.00  4.65 25.38                                                             
C  0.00  4.65 39.88                                                             
C  0.00  4.65 54.38                                                             
C  0.00  4.65 68.88                                                             
C  4.03  2.32 10.88                                                             
C  4.03  2.32 25.38                                                             
C  4.03  2.32 39.88                                                             
C  4.03  2.32 54.38                                                             
C  4.03  2.32 68.88                                                             
C  8.05  0.00 10.88                                                             
C  8.05  0.00 25.38                                                             
C  8.05  0.00 39.88                                                             
C  8.05  0.00 54.38                                                             
C  8.05  0.00 68.88                                                             
C  0.00  9.30 10.88                                                             
C  0.00  9.30 25.38                                                             
C  0.00  9.30 39.88                                                             
C  0.00  9.30 54.38                                                             
C  0.00  9.30 68.88                                                             
C  4.03  6.97 10.88                                                             
C  4.03  6.97 25.38                                                             
C  4.03  6.97 39.88                                                             
C  4.03  6.97 54.38                                                             
C  4.03  6.97 68.88                                                             
C  8.05  4.65 10.88                                                             
C  8.05  4.65 25.38                                                             
C  8.05  4.65 39.88                                                             
C  8.05  4.65 54.38                                                             
C  8.05  4.65 68.88                                                             
C 12.08  2.32 10.88                                                             
C 12.08  2.32 25.38                                                             
C 12.08  2.32 39.88                                                             
C 12.08  2.32 54.38                                                             
C 12.08  2.32 68.88                                                             
C 16.10  0.00 10.88                                                             
C 16.10  0.00 25.38                                                             
C 16.10  0.00 39.88                                                             
C 16.10  0.00 54.38                                                             
C 16.10  0.00 68.88                                                             
C  0.00 13.95 10.88                                                             
C  0.00 13.95 25.38                                                             
C  0.00 13.95 39.88                                                             
C  0.00 13.95 54.38                                                             
C  0.00 13.95 68.88                                                             
C  4.03 11.62 10.88                                                             
C  4.03 11.62 25.38                                                             
C  4.03 11.62 39.88                                                             
C  4.03 11.62 54.38                                                             
C  4.03 11.62 68.88                                                             
C  8.05  9.30 10.88                                                             
C  8.05  9.30 25.38                                                             
C  8.05  9.30 39.88                                                             
C  8.05  9.30 54.38                                                             
C  8.05  9.30 68.88                                                             
C 12.08  6.97 10.88                                                             
C 12.08  6.97 25.38                                                             
C 12.08  6.97 39.88                                                             
C 12.08  6.97 54.38                                                             
C 12.08  6.97 68.88                                                             
C 16.10  4.65 10.88                                                             
C 16.10  4.65 25.38                                                             
C 16.10  4.65 39.88                                                             
C 16.10  4.65 54.38                                                             
C 16.10  4.65 68.88                                                             
C 20.13  2.32 10.88                                                             
C 20.13  2.32 25.38                                                             
C 20.13  2.32 39.88                                                             
C 20.13  2.32 54.38                                                             
C 20.13  2.32 68.88                                                             
C 24.16  0.00 10.88                                                             
C 24.16  0.00 25.38                                                             
C 24.16  0.00 39.88                                                             
C 24.16  0.00 54.38                                                             
C 24.16  0.00 68.88                                                             
C  4.03 16.27 10.88                                                             
C  4.03 16.27 25.38                                                             
C  4.03 16.27 39.88                                                             
C  4.03 16.27 54.38                                                             
C  4.03 16.27 68.88                                                             
C  8.05 13.95 10.88                                                             
C  8.05 13.95 25.38                                                             
C  8.05 13.95 39.88                                                             
C  8.05 13.95 54.38                                                             
C  8.05 13.95 68.88                                                             
C 12.08 11.62 10.88                                                             
C 12.08 11.62 25.38                                                             
C 12.08 11.62 39.88                                                             
C 12.08 11.62 54.38                                                             
C 12.08 11.62 68.88                                                             
C 16.10  9.30 10.88                                                             
C 16.10  9.30 25.38                                                             
C 16.10  9.30 39.88                                                             
C 16.10  9.30 54.38                                                             
C 16.10  9.30 68.88                                                             
C 20.13  6.97 10.88                                                             
C 20.13  6.97 25.38                                                             
C 20.13  6.97 39.88                                                             
C 20.13  6.97 54.38                                                             
C 20.13  6.97 68.88                                                             
C 24.16  4.65 10.88                                                             
C 24.16  4.65 25.38                                                             
C 24.16  4.65 39.88                                                             
C 24.16  4.65 54.38                                                             
C 24.16  4.65 68.88                                                             
C 28.18  2.32 10.88                                                             
C 28.18  2.32 25.38                                                             
C 28.18  2.32 39.88                                                             
C 28.18  2.32 54.38                                                             
C 28.18  2.32 68.88                                                             
C 12.08 16.27 10.88                                                             
C 12.08 16.27 25.38                                                             
C 12.08 16.27 39.88                                                             
C 12.08 16.27 54.38                                                             
C 12.08 16.27 68.88                                                             
C 16.10 13.95 10.88                                                             
C 16.10 13.95 25.38                                                             
C 16.10 13.95 39.88                                                             
C 16.10 13.95 54.38                                                             
C 16.10 13.95 68.88                                                             
C 20.13 11.62 10.88                                                             
C 20.13 11.62 25.38                                                             
C 20.13 11.62 39.88                                                             
C 20.13 11.62 54.38                                                             
C 20.13 11.62 68.88                                                             
C 24.16  9.30 10.88                                                             
C 24.16  9.30 25.38                                                             
C 24.16  9.30 39.88                                                             
C 24.16  9.30 54.38                                                             
C 24.16  9.30 68.88                                                             
C 28.18  6.97 10.88                                                             
C 28.18  6.97 25.38                                                             
C 28.18  6.97 39.88                                                             
C 28.18  6.97 54.38                                                             
C 28.18  6.97 68.88                                                             
C 20.13 16.27 10.88                                                             
C 20.13 16.27 25.38                                                             
C 20.13 16.27 39.88                                                             
C 20.13 16.27 54.38                                                             
C 20.13 16.27 68.88                                                             
C 24.16 13.95 10.88                                                             
C 24.16 13.95 25.38                                                             
C 24.16 13.95 39.88                                                             
C 24.16 13.95 54.38                                                             
C 24.16 13.95 68.88                                                             
C 28.18 11.62 10.88                                                             
C 28.18 11.62 25.38                                                             
C 28.18 11.62 39.88                                                             
C 28.18 11.62 54.38                                                             
C 28.18 11.62 68.88                                                             
C 28.18 16.27 10.88                                                             
C 28.18 16.27 25.38                                                             
C 28.18 16.27 39.88                                                             
C 28.18 16.27 54.38                                                             
C 28.18 16.27 68.88                                                             
C  1.34  2.32  3.63                                                             
C  1.34  2.32 18.13                                                             
C  1.34  2.32 32.63                                                             
C  1.34  2.32 47.13                                                             
C  1.34  2.32 61.63                                                             
C  5.37  0.00  3.63                                                             
C  5.37  0.00 18.13                                                             
C  5.37  0.00 32.63                                                             
C  5.37  0.00 47.13                                                             
C  5.37  0.00 61.63                                                             
C  1.34  6.97  3.63                                                             
C  1.34  6.97 18.13                                                             
C  1.34  6.97 32.63                                                             
C  1.34  6.97 47.13                                                             
C  1.34  6.97 61.63                                                             
C  5.37  4.65  3.63                                                             
C  5.37  4.65 18.13                                                             
C  5.37  4.65 32.63                                                             
C  5.37  4.65 47.13                                                             
C  5.37  4.65 61.63                                                             
C  9.39  2.32  3.63                                                             
C  9.39  2.32 18.13                                                             
C  9.39  2.32 32.63                                                             
C  9.39  2.32 47.13                                                             
C  9.39  2.32 61.63                                                             
C 13.42  0.00  3.63                                                             
C 13.42  0.00 18.13                                                             
C 13.42  0.00 32.63                                                             
C 13.42  0.00 47.13                                                             
C 13.42  0.00 61.63                                                             
C  1.34 11.62  3.63                                                             
C  1.34 11.62 18.13                                                             
C  1.34 11.62 32.63                                                             
C  1.34 11.62 47.13                                                             
C  1.34 11.62 61.63                                                             
C  5.37  9.30  3.63                                                             
C  5.37  9.30 18.13                                                             
C  5.37  9.30 32.63                                                             
C  5.37  9.30 47.13                                                             
C  5.37  9.30 61.63                                                             
C  9.39  6.97  3.63                                                             
C  9.39  6.97 18.13                                                             
C  9.39  6.97 32.63                                                             
C  9.39  6.97 47.13                                                             
C  9.39  6.97 61.63                                                             
C 13.42  4.65  3.63                                                             
C 13.42  4.65 18.13                                                             
C 13.42  4.65 32.63                                                             
C 13.42  4.65 47.13                                                             
C 13.42  4.65 61.63                                                             
C 17.45  2.32  3.63                                                             
C 17.45  2.32 18.13                                                             
C 17.45  2.32 32.63                                                             
C 17.45  2.32 47.13                                                             
C 17.45  2.32 61.63                                                             
C 21.47  0.00  3.63                                                             
C 21.47  0.00 18.13                                                             
C 21.47  0.00 32.63                                                             
C 21.47  0.00 47.13                                                             
C 21.47  0.00 61.63                                                             
C  1.34 16.27  3.63                                                             
C  1.34 16.27 18.13                                                             
C  1.34 16.27 32.63                                                             
C  1.34 16.27 47.13                                                             
C  1.34 16.27 61.63                                                             
C  5.37 13.95  3.63                                                             
C  5.37 13.95 18.13                                                             
C  5.37 13.95 32.63                                                             
C  5.37 13.95 47.13                                                             
C  5.37 13.95 61.63                                                             
C  9.39 11.62  3.63                                                             
C  9.39 11.62 18.13                                                             
C  9.39 11.62 32.63                                                             
C  9.39 11.62 47.13                                                             
C  9.39 11.62 61.63                                                             
C 13.42  9.30  3.63                                                             
C 13.42  9.30 18.13                                                             
C 13.42  9.30 32.63                                                             
C 13.42  9.30 47.13                                                             
C 13.42  9.30 61.63                                                             
C 17.45  6.97  3.63                                                             
C 17.45  6.97 18.13                                                             
C 17.45  6.97 32.63                                                             
C 17.45  6.97 47.13                                                             
C 17.45  6.97 61.63                                                             
C 21.47  4.65  3.63                                                             
C 21.47  4.65 18.13                                                             
C 21.47  4.65 32.63                                                             
C 21.47  4.65 47.13                                                             
C 21.47  4.65 61.63                                                             
C 25.50  2.32  3.63                                                             
C 25.50  2.32 18.13                                                             
C 25.50  2.32 32.63                                                             
C 25.50  2.32 47.13                                                             
C 25.50  2.32 61.63                                                             
C 29.52  0.00  3.63                                                             
C 29.52  0.00 18.13                                                             
C 29.52  0.00 32.63                                                             
C 29.52  0.00 47.13                                                             
C 29.52  0.00 61.63                                                             
C  9.39 16.27  3.63                                                             
C  9.39 16.27 18.13                                                             
C  9.39 16.27 32.63                                                             
C  9.39 16.27 47.13                                                             
C  9.39 16.27 61.63                                                             
C 13.42 13.95  3.63                                                             
C 13.42 13.95 18.13                                                             
C 13.42 13.95 32.63                                                             
C 13.42 13.95 47.13                                                             
C 13.42 13.95 61.63                                                             
C 17.45 11.62  3.63                                                             
C 17.45 11.62 18.13                                                             
C 17.45 11.62 32.63                                                             
C 17.45 11.62 47.13                                                             
C 17.45 11.62 61.63                                                             
C 21.47  9.30  3.63                                                             
C 21.47  9.30 18.13                                                             
C 21.47  9.30 32.63                                                             
C 21.47  9.30 47.13                                                             
C 21.47  9.30 61.63                                                             
C 25.50  6.97  3.63                                                             
C 25.50  6.97 18.13                                                             
C 25.50  6.97 32.63                                                             
C 25.50  6.97 47.13                                                             
C 25.50  6.97 61.63                                                             
C 29.52  4.65  3.63                                                             
C 29.52  4.65 18.13                                                             
C 29.52  4.65 32.63                                                             
C 29.52  4.65 47.13                                                             
C 29.52  4.65 61.63                                                             
C 17.45 16.27  3.63                                                             
C 17.45 16.27 18.13                                                             
C 17.45 16.27 32.63                                                             
C 17.45 16.27 47.13                                                             
C 17.45 16.27 61.63                                                             
C 21.47 13.95  3.63                                                             
C 21.47 13.95 18.13                                                             
C 21.47 13.95 32.63                                                             
C 21.47 13.95 47.13                                                             
C 21.47 13.95 61.63                                                             
C 25.50 11.62  3.63                                                             
C 25.50 11.62 18.13                                                             
C 25.50 11.62 32.63                                                             
C 25.50 11.62 47.13                                                             
C 25.50 11.62 61.63                                                             
C 29.52  9.30  3.63                                                             
C 29.52  9.30 18.13                                                             
C 29.52  9.30 32.63                                                             
C 29.52  9.30 47.13                                                             
C 29.52  9.30 61.63                                                             
C 25.50 16.27  3.63                                                             
C 25.50 16.27 18.13                                                             
C 25.50 16.27 32.63                                                             
C 25.50 16.27 47.13                                                             
C 25.50 16.27 61.63                                                             
C 29.52 13.95  3.63                                                             
C 29.52 13.95 18.13                                                             
C 29.52 13.95 32.63                                                             
C 29.52 13.95 47.13                                                             
C 29.52 13.95 61.63                                                             
C  2.68  0.00 10.88                                                             
C  2.68  0.00 25.38                                                             
C  2.68  0.00 39.88                                                             
C  2.68  0.00 54.38                                                             
C  2.68  0.00 68.88                                                             
C  2.68  4.65 10.88                                                             
C  2.68  4.65 25.38                                                             
C  2.68  4.65 39.88                                                             
C  2.68  4.65 54.38                                                             
C  2.68  4.65 68.88                                                             
C  6.71  2.32 10.88                                                             
C  6.71  2.32 25.38                                                             
C  6.71  2.32 39.88                                                             
C  6.71  2.32 54.38                                                             
C  6.71  2.32 68.88                                                             
C 10.74  0.00 10.88                                                             
C 10.74  0.00 25.38                                                             
C 10.74  0.00 39.88                                                             
C 10.74  0.00 54.38                                                             
C 10.74  0.00 68.88                                                             
C  2.68  9.30 10.88                                                             
C  2.68  9.30 25.38                                                             
C  2.68  9.30 39.88                                                             
C  2.68  9.30 54.38                                                             
C  2.68  9.30 68.88                                                             
C  6.71  6.97 10.88                                                             
C  6.71  6.97 25.38                                                             
C  6.71  6.97 39.88                                                             
C  6.71  6.97 54.38                                                             
C  6.71  6.97 68.88                                                             
C 10.74  4.65 10.88                                                             
C 10.74  4.65 25.38                                                             
C 10.74  4.65 39.88                                                             
C 10.74  4.65 54.38                                                             
C 10.74  4.65 68.88                                                             
C 14.76  2.32 10.88                                                             
C 14.76  2.32 25.38                                                             
C 14.76  2.32 39.88                                                             
C 14.76  2.32 54.38                                                             
C 14.76  2.32 68.88                                                             
C 18.79  0.00 10.88                                                             
C 18.79  0.00 25.38                                                             
C 18.79  0.00 39.88                                                             
C 18.79  0.00 54.38                                                             
C 18.79  0.00 68.88                                                             
C  2.68 13.95 10.88                                                             
C  2.68 13.95 25.38                                                             
C  2.68 13.95 39.88                                                             
C  2.68 13.95 54.38                                                             
C  2.68 13.95 68.88                                                             
C  6.71 11.62 10.88                                                             
C  6.71 11.62 25.38                                                             
C  6.71 11.62 39.88                                                             
C  6.71 11.62 54.38                                                             
C  6.71 11.62 68.88                                                             
C 10.74  9.30 10.88                                                             
C 10.74  9.30 25.38                                                             
C 10.74  9.30 39.88                                                             
C 10.74  9.30 54.38                                                             
C 10.74  9.30 68.88                                                             
C 14.76  6.97 10.88                                                             
C 14.76  6.97 25.38                                                             
C 14.76  6.97 39.88                                                             
C 14.76  6.97 54.38                                                             
C 14.76  6.97 68.88                                                             
C 18.79  4.65 10.88                                                             
C 18.79  4.65 25.38                                                             
C 18.79  4.65 39.88                                                             
C 18.79  4.65 54.38                                                             
C 18.79  4.65 68.88                                                             
C 22.81  2.32 10.88                                                             
C 22.81  2.32 25.38                                                             
C 22.81  2.32 39.88                                                             
C 22.81  2.32 54.38                                                             
C 22.81  2.32 68.88                                                             
C 26.84  0.00 10.88                                                             
C 26.84  0.00 25.38                                                             
C 26.84  0.00 39.88                                                             
C 26.84  0.00 54.38                                                             
C 26.84  0.00 68.88                                                             
C  6.71 16.27 10.88                                                             
C  6.71 16.27 25.38                                                             
C  6.71 16.27 39.88                                                             
C  6.71 16.27 54.38                                                             
C  6.71 16.27 68.88                                                             
C 10.74 13.95 10.88                                                             
C 10.74 13.95 25.38                                                             
C 10.74 13.95 39.88                                                             
C 10.74 13.95 54.38                                                             
C 10.74 13.95 68.88                                                             
C 14.76 11.62 10.88                                                             
C 14.76 11.62 25.38                                                             
C 14.76 11.62 39.88                                                             
C 14.76 11.62 54.38                                                             
C 14.76 11.62 68.88                                                             
C 18.79  9.30 10.88                                                             
C 18.79  9.30 25.38                                                             
C 18.79  9.30 39.88                                                             
C 18.79  9.30 54.38                                                             
C 18.79  9.30 68.88                                                             
C 22.81  6.97 10.88                                                             
C 22.81  6.97 25.38                                                             
C 22.81  6.97 39.88                                                             
C 22.81  6.97 54.38                                                             
C 22.81  6.97 68.88                                                             
C 26.84  4.65 10.88                                                             
C 26.84  4.65 25.38                                                             
C 26.84  4.65 39.88                                                             
C 26.84  4.65 54.38                                                             
C 26.84  4.65 68.88                                                             
C 30.86  2.32 10.88                                                             
C 30.86  2.32 25.38                                                             
C 30.86  2.32 39.88                                                             
C 30.86  2.32 54.38                                                             
C 30.86  2.32 68.88                                                             
C 14.76 16.27 10.88                                                             
C 14.76 16.27 25.38                                                             
C 14.76 16.27 39.88                                                             
C 14.76 16.27 54.38                                                             
C 14.76 16.27 68.88                                                             
C 18.79 13.95 10.88                                                             
C 18.79 13.95 25.38                                                             
C 18.79 13.95 39.88                                                             
C 18.79 13.95 54.38                                                             
C 18.79 13.95 68.88                                                             
C 22.81 11.62 10.88                                                             
C 22.81 11.62 25.38                                                             
C 22.81 11.62 39.88                                                             
C 22.81 11.62 54.38                                                             
C 22.81 11.62 68.88                                                             
C 26.84  9.30 10.88                                                             
C 26.84  9.30 25.38                                                             
C 26.84  9.30 39.88                                                             
C 26.84  9.30 54.38                                                             
C 26.84  9.30 68.88                                                             
C 30.86  6.97 10.88                                                             
C 30.86  6.97 25.38                                                             
C 30.86  6.97 39.88                                                             
C 30.86  6.97 54.38                                                             
C 30.86  6.97 68.88                                                             
C 22.81 16.27 10.88                                                             
C 22.81 16.27 25.38                                                             
C 22.81 16.27 39.88                                                             
C 22.81 16.27 54.38                                                             
C 22.81 16.27 68.88                                                             
C 26.84 13.95 10.88                                                             
C 26.84 13.95 25.38                                                             
C 26.84 13.95 39.88                                                             
C 26.84 13.95 54.38                                                             
C 26.84 13.95 68.88                                                             
C 30.86 11.62 10.88                                                             
C 30.86 11.62 25.38                                                             
C 30.86 11.62 39.88                                                             
C 30.86 11.62 54.38                                                             
C 30.86 11.62 68.88                                                             
C 30.86 16.27 10.88                                                             
C 30.86 16.27 25.38                                                             
C 30.86 16.27 39.88                                                             
C 30.86 16.27 54.38                                                             
C 30.86 16.27 68.88                                                             
%ENDBLOCK POSITIONS_ABS                                                         

--------------------------------------------------------------------------------
-------------------------------- END INPUT FILE --------------------------------
--------------------------------------------------------------------------------


 
<<<<<<<<<<<<<<<<<<<<<<<<<<<<<<<<< Full system >>>>>>>>>>>>>>>>>>>>>>>>>>>>>>>>>>
<<<<<<<<<<<<<<<<<<<<<<<<<<< PAW Dataset information >>>>>>>>>>>>>>>>>>>>>>>>>>>
File: ~/pp/paw/c_pbe_abinit.paw; rc = 1.25 bohr; shape type =  3; rshape = 1.25 bohr;
  Atomic number:  6;  ionic charge:  4.000000
    Partial Wave 1: l = 0
    Partial Wave 2: l = 0
    Partial Wave 3: l = 1
    Partial Wave 4: l = 1
  Core charge supplied for Nonlinear Core Corrections
<<<<<<<<<<<<<<<<<<<<<<<<<<<<<<<<<<<<<<< >>>>>>>>>>>>>>>>>>>>>>>>>>>>>>>>>>>>>>>

-------------------------- Atom counting information ---------------------------
Symbol    Natoms    Nngwfs    Nprojs
  C        640      2560      5120
.......   ......    ......    ......
Totals:    640      2560      5120
--------------------------------------------------------------------------------

=============================== PSINC grid sizes ===============================
                      Simulation cell:   63 x  35 x 143
                              FFT-box:   63 x  35 x 117
                                  PPD:    7 x   5 x   1
Grid space d1=  0.511269841270a0 (KE cutoff=  29.06054Eh = 790.77748eV)
Grid space d2=  0.531142857143a0 (KE cutoff=  26.92659Eh = 732.70972eV)
Grid space d3=  0.507062937063a0 (KE cutoff=  29.54475Eh = 803.95346eV)
================================================================================
  
WARNING in cell_grid_distribute:
Average of less than one 23-slab per node, so workload cannot be
equally balanced between nodes.

********************* Fourier parallelisation information **********************
       Coarse grid (whole simulation cell) dimensions:     63    35   143
          Real-space ('12') slabs/node (min max mean):      3     4     3
         Recip-space ('23') slabs/node (min max mean):      0     1     0
********************************************************************************

********************* Fourier parallelisation information **********************
       Double grid (whole simulation cell) dimensions:    126    70   286
          Real-space ('12') slabs/node (min max mean):      7     8     7
         Recip-space ('23') slabs/node (min max mean):      1     2     1
********************************************************************************

Atom SCF Calculation for C  : Z (AE atom) =   6 : Z (PS atom) =   4
Config String: 2s2 2p2
Orbitals (num,occ):  2     2.00 2.00
Orbitals   (num,l):  2        0    1
Real-space Grid (nr,dr,rmax): 1293    0.0069659443    9.0000000000
Spherical Bessel Basis (nsws,lmax,cutoff):   37    2  161.4736382572
Confining potential (l,width,scale):  0    3.0000000000  100.0000000000
Confining potential (l,width,scale):  1    3.0000000000  100.0000000000
  1         -5.4468762137   -1.3311033486    4.5135257941   -1.6400141247
  2         -5.4563922850   -1.3925089082    4.4492606193   -1.6178955363
  3         -5.4591606672   -1.4162756486    4.4239316220   -1.6104942496
  4         -5.4639338613   -1.4240698331    4.4156521757   -1.6083566999
  5         -5.4657436445   -1.4272842389    4.4122438165   -1.6075116305
  6         -5.4665049591   -1.4285796230    4.4108740217   -1.6071800157
  7         -5.4668137280   -1.4291083664    4.4103163978   -1.6070462938
  8         -5.4669397753   -1.4293243321    4.4100892688   -1.6069921003
  9         -5.4669910134   -1.4294128082    4.4099964732   -1.6069700140
 10         -5.4670118707   -1.4294491026    4.4099585094   -1.6069609935
 11         -5.4670203648   -1.4294640137    4.4099429536   -1.6069573023
 12         -5.4670238269   -1.4294701480    4.4099365706   -1.6069557895
 13         -5.4670252393   -1.4294726750    4.4099339478   -1.6069551687
 14         -5.4670258160   -1.4294737172    4.4099328686   -1.6069549136
 15         -5.4670260518   -1.4294741476    4.4099324241   -1.6069548086
 16         -5.4670261483   -1.4294743256    4.4099322407   -1.6069547654
Atom SCF converged after  16 iterations to a total energy of     -5.46702615

Determining parallel strategy ...
... using space-filling curve
... NGWF load balancing: max     64;  min     64;  average     64
... Projector load balancing: max    128;  min    128;  average    128
... done
Calculating Ewald energy ...
              Ewald: real-space energy =    9488.921918
        Ewald: reciprocal-space energy =       0.489429
         Ewald: (sum_charge)**2 Energy =   10818.505505
         Ewald: (sum_charge**2) Energy =     855.277957
                          Ewald Energy =   -2184.372114
Basis initialisation ...... NGWF spheres initialised
... Projector spheres initialised
... NGWF tight boxes initialised
... Projector tight boxes initialised
... Tight-boxes gathered
... NGWF basis size (local,global):     692372  27895264
... PAW projector initialisation
... done

============================= Charge Augmentation ==============================
                           Aug box size:   11 x  11 x  11
================================================================================

========================== Sparse matrix information ===========================
                        Overlap matrix filling:  40.31%
                        Density kernel filling: 100.00%
              NGWF-Proj overlap matrix filling:  12.19%
                    Aug Overlap matrix filling:  47.03%
                    Hamiltonian matrix filling:  47.03%
                  NGWF diagonal matrix filling:   0.16%
                             KS matrix filling: 100.00% 
                           KSKS matrix filling: 100.00% 
================================================================================

Sparse matrix initialisation ... done
NGWF initialisation ...... done
============ Calculation of NGWF S^-1 using Hotelling algorithm ================ 
         Iteration  |  Frobenius norm and Maximum abs value    (of I-S*S_n^-1)   
               1       0.48907584E+02     0.97399658E+00
               2       0.47578922E+02     0.94987017E+00
               3       0.45618846E+02     0.90641498E+00
               4       0.43120293E+02     0.83437039E+00
               5       0.40159014E+02     0.72854589E+00
               6       0.36778316E+02     0.66988669E+00
               7       0.33340632E+02     0.62395303E+00
               8       0.30053546E+02     0.58501065E+00
               9       0.26423701E+02     0.53926351E+00
              10       0.21760067E+02     0.46560519E+00
              11       0.15725444E+02     0.35050765E+00
              12       0.89718116E+01     0.20408434E+00
              13       0.33719735E+01     0.74448430E-01
              14       0.56961420E+00     0.11487697E-01
              15       0.19249462E-01     0.33673306E-03
              16       0.28447672E-04     0.37166931E-06
              17       0.94834956E-10     0.74784623E-12
================================================================================
Calculating core density ...
================================= Core Density =================================
               Core den box size:   21 x  21 x  21
================================================================================
 ... done
Up spin density kernel initialisation ...... done

Writing density kernel to file "3.8369616_GO_manual_4x64graphite.dkn" ... done

>>> Optimising kernel for current NGWFs:

--------------------------- Ensemble-DFT optimisation --------------------------
Running ScaLAPACK on   40 processor(s).

--------------------------------------------------------------------------------
  Iter                              Commutator    Free_energy(A=E-TS)     DeltaA
#    0                          0.000037819676   -3650.04781698555871  -3.65E+03

Step                       =       0.381966011250
Energy                     =   -3650.047790578089
Entropy (-TS)              =      -0.000026407572
Free energy (A=E-TS)       =   -3650.047816985559
Est. 0K Energy 0.5*(E+A)   =   -3650.047803781824
Residual Non-orthogonality =       0.000000000000
Residual N_electrons       =       0.000000000102

Spin          Integrated_Ne            Fermi_level     Delta_Fermi_level
   1      2559.999999999307         0.147616677913              1.48E-01

                           Spin 1          
     Orb      H-eigenvalues     Occupancies
       1 |    -0.5729365764    1.0000000000 | 
                          ------
    1276 |     0.1121941605    0.9999861269 | 
    1277 |     0.1127932541    0.9999832378 | 
    1278 |     0.1128070855    0.9999831644 | 
    1279 |     0.1128191324    0.9999831003 | 
    1280 |     0.1134191004    0.9999795752 | 
                 - Gap at zero temperature -
    1281 |     0.1839601418    0.0000103723 | 
    1282 |     0.1839677248    0.0000103475 | 
    1283 |     0.1839739371    0.0000103272 | 
    1284 |     0.1840609770    0.0000100473 | 
    1285 |     0.1840804003    0.0000099858 | 
                          ------
    2560 |     0.9776431074    0.0000000000 | 

                       |  Abs_value |  Threshold | Converged
     Delta_Free_energy |   3.65E+03 |   1.00E-06 |        No
     Delta_Energy      |   3.65E+03 |   1.00E-04 |        No
     Delta_Entropy     |   2.64E-05 |   1.00E-04 |       Yes
     Commutator        |   3.78E-05 |   1.00E-05 |        No
     Delta_Fermi_level |   1.48E-01 |   1.00E-03 |        No

  Line search of the free energy minimum:
  Step_type        Step             Free_energy   Predicted_free_energy
.   Initial    0.000000    -3650.04781698555871
.    Trial1    0.381966    -3650.04940290098648
.    Trial2    0.618034    -3650.04978152291187
. Quadratic    0.694506    -3650.04980595249253    -3650.04980563354320

--------------------------------------------------------------------------------
  Iter                              Commutator    Free_energy(A=E-TS)     DeltaA
#    1                          0.000020142102   -3650.04980595249253  -1.99E-03

Step                       =       0.694505767575
Energy                     =   -3650.049779289508
Entropy (-TS)              =      -0.000026663260
Free energy (A=E-TS)       =   -3650.049805952493
Est. 0K Energy 0.5*(E+A)   =   -3650.049792621000
Residual Non-orthogonality =       0.000000000000
Residual N_electrons       =       0.000000000275

Spin          Integrated_Ne            Fermi_level     Delta_Fermi_level
   1      2559.999999998104         0.144981865864             -2.63E-03

                           Spin 1          
     Orb      H-eigenvalues     Occupancies
       1 |    -0.5781294308    1.0000000000 | 
                          ------
    1276 |     0.1096461129    0.9999857416 | 
    1277 |     0.1100946647    0.9999835720 | 
    1278 |     0.1100954514    0.9999835679 | 
    1279 |     0.1102365421    0.9999828193 | 
    1280 |     0.1106864505    0.9999801966 | 
                 - Gap at zero temperature -
    1281 |     0.1812109752    0.0000107537 | 
    1282 |     0.1812201950    0.0000107225 | 
    1283 |     0.1812363336    0.0000106680 | 
    1284 |     0.1813181977    0.0000103957 | 
    1285 |     0.1813486908    0.0000102961 | 
                          ------
    2560 |     0.9727220630    0.0000000000 | 

                       |  Abs_value |  Threshold | Converged
     Delta_Free_energy |   1.99E-03 |   1.00E-06 |        No
     Delta_Energy      |   1.99E-03 |   1.00E-04 |        No
     Delta_Entropy     |   2.56E-07 |   1.00E-04 |       Yes
     Commutator        |   2.01E-05 |   1.00E-05 |        No
     Delta_Fermi_level |   2.63E-03 |   1.00E-03 |        No

  Line search of the free energy minimum:
  Step_type        Step             Free_energy   Predicted_free_energy
.   Initial    0.000000    -3650.04980595249253
.    Trial1    0.694506    -3650.04884000395259
.    Trial2    0.265278    -3650.05019004728683
. Quadratic    0.242103    -3650.05019361696850    -3650.05019359933294

--------------------------------------------------------------------------------
  Iter                              Commutator    Free_energy(A=E-TS)     DeltaA
#    2                          0.000009268172   -3650.05019361696850  -3.88E-04

Step                       =       0.242102555004
Energy                     =   -3650.050166935284
Entropy (-TS)              =      -0.000026681509
Free energy (A=E-TS)       =   -3650.050193616968
Est. 0K Energy 0.5*(E+A)   =   -3650.050180276126
Residual Non-orthogonality =       0.000000000000
Residual N_electrons       =      -0.000000000176

Spin          Integrated_Ne            Fermi_level     Delta_Fermi_level
   1      2560.000000001213         0.144706814316             -2.75E-04

                           Spin 1          
     Orb      H-eigenvalues     Occupancies
       1 |    -0.5786808932    1.0000000000 | 
                          ------
    1276 |     0.1093340791    0.9999859071 | 
    1277 |     0.1098476300    0.9999834260 | 
    1278 |     0.1098485880    0.9999834210 | 
    1279 |     0.1099224567    0.9999830298 | 
    1280 |     0.1104376316    0.9999800319 | 
                 - Gap at zero temperature -
    1281 |     0.1809607721    0.0000106697 | 
    1282 |     0.1809704656    0.0000106371 | 
    1283 |     0.1809856750    0.0000105861 | 
    1284 |     0.1810705712    0.0000103061 | 
    1285 |     0.1811004283    0.0000102094 | 
                          ------
    2560 |     0.9721953195    0.0000000000 | 

                       |  Abs_value |  Threshold | Converged
     Delta_Free_energy |   3.88E-04 |   1.00E-06 |        No
     Delta_Energy      |   3.88E-04 |   1.00E-04 |        No
     Delta_Entropy     |   1.82E-08 |   1.00E-04 |       Yes
     Commutator        |   9.27E-06 |   1.00E-05 |       Yes
     Delta_Fermi_level |   2.75E-04 |   1.00E-03 |       Yes

  Line search of the free energy minimum:
  Step_type        Step             Free_energy   Predicted_free_energy
.   Initial    0.000000    -3650.05019361696850
.    Trial1    0.242103    -3650.05026543553504
.    Trial2    0.531594    -3650.05027738401805
. Quadratic    0.429807    -3650.05028235756572    -3650.05028236106182

--------------------------------------------------------------------------------
  Iter                              Commutator    Free_energy(A=E-TS)     DeltaA
#    3                          0.000006047351   -3650.05028235756572  -8.87E-05

Step                       =       0.429807227485
Energy                     =   -3650.050255655574
Entropy (-TS)              =      -0.000026702216
Free energy (A=E-TS)       =   -3650.050282357566
Est. 0K Energy 0.5*(E+A)   =   -3650.050269006570
Residual Non-orthogonality =       0.000000000000
Residual N_electrons       =       0.000000000224

Spin          Integrated_Ne            Fermi_level     Delta_Fermi_level
   1      2559.999999998451         0.144334256404             -3.73E-04

                           Spin 1          
     Orb      H-eigenvalues     Occupancies
       1 |    -0.5794128699    1.0000000000 | 
                          ------
    1276 |     0.1089398700    0.9999860031 | 
    1277 |     0.1094880965    0.9999833577 | 
    1278 |     0.1094894021    0.9999833509 | 
    1279 |     0.1095257133    0.9999831589 | 
    1280 |     0.1100759689    0.9999799630 | 
                 - Gap at zero temperature -
    1281 |     0.1806002071    0.0000106293 | 
    1282 |     0.1806103611    0.0000105953 | 
    1283 |     0.1806246086    0.0000105478 | 
    1284 |     0.1807123682    0.0000102595 | 
    1285 |     0.1807415393    0.0000101654 | 
                          ------
    2560 |     0.9715109407    0.0000000000 | 

                       |  Abs_value |  Threshold | Converged
     Delta_Free_energy |   8.87E-05 |   1.00E-06 |        No
     Delta_Energy      |   8.87E-05 |   1.00E-04 |       Yes
     Delta_Entropy     |   2.07E-08 |   1.00E-04 |       Yes
     Commutator        |   6.05E-06 |   1.00E-05 |       Yes
     Delta_Fermi_level |   3.73E-04 |   1.00E-03 |       Yes

  Line search of the free energy minimum:
  Step_type        Step             Free_energy   Predicted_free_energy
.   Initial    0.000000    -3650.05028235756572
.    Trial1    0.429807    -3650.05030217505964
.    Trial2    0.647601    -3650.05024561358778
. Quadratic    0.263724    -3650.05031520381362    -3650.05031520053990

--------------------------------------------------------------------------------
  Iter                              Commutator    Free_energy(A=E-TS)     DeltaA
#    4                          0.000003719517   -3650.05031520381362  -3.28E-05

Step                       =       0.263724115038
Energy                     =   -3650.050288496054
Entropy (-TS)              =      -0.000026708058
Free energy (A=E-TS)       =   -3650.050315203814
Est. 0K Energy 0.5*(E+A)   =   -3650.050301849934
Residual Non-orthogonality =       0.000000000000
Residual N_electrons       =       0.000000000298

Spin          Integrated_Ne            Fermi_level     Delta_Fermi_level
   1      2559.999999997933         0.144203996617             -1.30E-04

                           Spin 1          
     Orb      H-eigenvalues     Occupancies
       1 |    -0.5796697327    1.0000000000 | 
[...]
 C   275 -- C   555       -0.10      5.37000
 C   274 -- C   554       -0.10      5.37000
 C   273 -- C   553       -0.10      5.37000
 C   272 -- C   552       -0.10      5.37000
 C   271 -- C   551       -0.10      5.37000
 C   270 -- C   550       -0.10      5.37000
 C   269 -- C   549       -0.10      5.37000
 C   268 -- C   548       -0.10      5.37000
 C   267 -- C   547       -0.10      5.37000
 C   266 -- C   546       -0.10      5.37000
 C   130 -- C   465       -0.09      5.37000
 C   129 -- C   464       -0.09      5.37000
 C   128 -- C   463       -0.09      5.37000
 C   127 -- C   462       -0.09      5.37000
 C   126 -- C   461       -0.09      5.37000
 C   240 -- C   525       -0.10      5.37000
 C   239 -- C   524       -0.10      5.37000
 C   238 -- C   523       -0.10      5.37000
 C   237 -- C   522       -0.10      5.37000
 C   236 -- C   521       -0.10      5.37000
 C    23 -- C   478       -0.09      5.37202
 C    49 -- C   469       -0.09      5.37202
 C    48 -- C   468       -0.09      5.37202
 C    47 -- C   467       -0.09      5.37202
 C    22 -- C   477       -0.09      5.37202
 C    46 -- C   466       -0.09      5.37202
 C    21 -- C   476       -0.09      5.37202
 C    25 -- C   480       -0.09      5.37202
 C    24 -- C   479       -0.09      5.37202
 C    50 -- C   470       -0.09      5.37202
 C    24 -- C   449       -0.09      5.37202
 C     6 -- C   416       -0.09      5.37202
 C    23 -- C   448       -0.09      5.37202
 C    22 -- C   447       -0.09      5.37202
 C    10 -- C   470       -0.09      5.37202
 C     5 -- C   450       -0.09      5.37202
 C    21 -- C   446       -0.09      5.37202
 C    10 -- C   420       -0.09      5.37202
 C     9 -- C   469       -0.09      5.37202
 C     9 -- C   419       -0.09      5.37202
 C     8 -- C   468       -0.09      5.37202
 C     4 -- C   449       -0.09      5.37202
 C     8 -- C   418       -0.09      5.37202
 C   285 -- C   580       -0.09      5.37202
 C   284 -- C   579       -0.09      5.37202
 C   283 -- C   578       -0.09      5.37202
 C   282 -- C   577       -0.09      5.37202
 C   281 -- C   576       -0.09      5.37202
 C     2 -- C   447       -0.09      5.37202
 C     7 -- C   467       -0.09      5.37202
 C   260 -- C   605       -0.09      5.37202
 C   259 -- C   604       -0.09      5.37202
 C   258 -- C   603       -0.09      5.37202
 C   257 -- C   602       -0.09      5.37202
 C   256 -- C   601       -0.09      5.37202
 C     7 -- C   417       -0.09      5.37202
 C     1 -- C   446       -0.09      5.37202
 C     6 -- C   466       -0.09      5.37202
 C    25 -- C   450       -0.09      5.37202
 C     3 -- C   448       -0.09      5.37202
 C   219 -- C   569       -0.09      5.37202
 C   218 -- C   568       -0.09      5.37202
 C   217 -- C   567       -0.09      5.37202
 C   216 -- C   566       -0.09      5.37202
 C   250 -- C   540       -0.09      5.37202
 C   249 -- C   539       -0.09      5.37202
 C   248 -- C   538       -0.09      5.37202
 C   247 -- C   537       -0.09      5.37202
 C   246 -- C   536       -0.09      5.37202
 C   220 -- C   570       -0.09      5.37202
 C   205 -- C   550       -0.09      5.37202
 C   204 -- C   549       -0.09      5.37202
 C   203 -- C   548       -0.09      5.37202
 C   202 -- C   547       -0.09      5.37202
 C   201 -- C   546       -0.09      5.37202
 C    95 -- C   365       -0.09      5.37202
 C    94 -- C   364       -0.09      5.37202
 C    93 -- C   363       -0.09      5.37202
 C    92 -- C   362       -0.09      5.37202
 C    91 -- C   361       -0.09      5.37202
 C    65 -- C   395       -0.09      5.37202
 C    64 -- C   394       -0.09      5.37202
 C    63 -- C   393       -0.09      5.37202
 C    30 -- C   355       -0.09      5.37202
 C    62 -- C   392       -0.09      5.37202
 C    61 -- C   391       -0.09      5.37202
 C    29 -- C   354       -0.09      5.37202
 C   260 -- C   550       -0.09      5.37202
 C   259 -- C   549       -0.09      5.37202
 C    28 -- C   353       -0.09      5.37202
 C   258 -- C   548       -0.09      5.37202
 C   257 -- C   547       -0.09      5.37202
 C   256 -- C   546       -0.09      5.37202
 C    27 -- C   352       -0.09      5.37202
 C    26 -- C   351       -0.09      5.37202
 C    55 -- C   335       -0.09      5.37202
 C    54 -- C   334       -0.09      5.37202
 C    53 -- C   333       -0.09      5.37202
 C   230 -- C   580       -0.09      5.37202
 C   230 -- C   525       -0.09      5.37202
 C   229 -- C   579       -0.09      5.37202
 C   229 -- C   524       -0.09      5.37202
 C   228 -- C   578       -0.09      5.37202
 C    52 -- C   332       -0.09      5.37202
 C   228 -- C   523       -0.09      5.37202
 C   227 -- C   577       -0.09      5.37202
 C   227 -- C   522       -0.09      5.37202
 C   226 -- C   576       -0.09      5.37202
 C   226 -- C   521       -0.09      5.37202
 C    51 -- C   331       -0.09      5.37202
 C   220 -- C   515       -0.09      5.37202
 C   219 -- C   514       -0.09      5.37202
 C   218 -- C   513       -0.09      5.37202
 C   217 -- C   512       -0.09      5.37202
 C   216 -- C   511       -0.09      5.37202
 C   195 -- C   540       -0.09      5.37202
 C   195 -- C   500       -0.09      5.37202
 C   194 -- C   539       -0.09      5.37202
 C   194 -- C   499       -0.09      5.37202
 C   193 -- C   538       -0.09      5.37202
 C   193 -- C   498       -0.09      5.37202
 C   192 -- C   537       -0.09      5.37202
 C   192 -- C   497       -0.09      5.37202
 C   191 -- C   536       -0.09      5.37202
 C   191 -- C   496       -0.09      5.37202
 C   180 -- C   515       -0.09      5.37202
 C   179 -- C   514       -0.09      5.37202
 C   178 -- C   513       -0.09      5.37202
 C   177 -- C   512       -0.09      5.37202
 C   176 -- C   511       -0.09      5.37202
 C   150 -- C   440       -0.09      5.37202
 C   149 -- C   439       -0.09      5.37202
 C   148 -- C   438       -0.09      5.37202
 C   147 -- C   437       -0.09      5.37202
 C   146 -- C   436       -0.09      5.37202
 C   135 -- C   460       -0.09      5.37202
 C   134 -- C   459       -0.09      5.37202
 C   133 -- C   458       -0.09      5.37202
 C   132 -- C   457       -0.09      5.37202
 C   131 -- C   456       -0.09      5.37202
 C    11 -- C   331       -0.09      5.37202
 C    95 -- C   425       -0.09      5.37202
 C    94 -- C   424       -0.09      5.37202
 C    93 -- C   423       -0.09      5.37202
 C    92 -- C   422       -0.09      5.37202
 C    91 -- C   421       -0.09      5.37202
 C    85 -- C   355       -0.09      5.37202
 C    40 -- C   365       -0.09      5.37202
 C    84 -- C   354       -0.09      5.37202
 C    83 -- C   353       -0.09      5.37202
 C    82 -- C   352       -0.09      5.37202
 C    39 -- C   364       -0.09      5.37202
 C    81 -- C   351       -0.09      5.37202
 C    38 -- C   363       -0.09      5.37202
 C    37 -- C   362       -0.09      5.37202
 C    36 -- C   361       -0.09      5.37202
 C    15 -- C   335       -0.09      5.37202
 C    65 -- C   345       -0.09      5.37202
 C    64 -- C   344       -0.09      5.37202
 C    63 -- C   343       -0.09      5.37202
 C    30 -- C   325       -0.09      5.37202
 C    62 -- C   342       -0.09      5.37202
 C    14 -- C   334       -0.09      5.37202
 C    61 -- C   341       -0.09      5.37202
 C    29 -- C   324       -0.09      5.37202
 C    28 -- C   323       -0.09      5.37202
 C    13 -- C   333       -0.09      5.37202
 C    27 -- C   322       -0.09      5.37202
 C   120 -- C   395       -0.09      5.37202
 C    55 -- C   385       -0.09      5.37202
 C   119 -- C   394       -0.09      5.37202
 C   118 -- C   393       -0.09      5.37202
 C   117 -- C   392       -0.09      5.37202
 C    54 -- C   384       -0.09      5.37202
 C    26 -- C   321       -0.09      5.37202
 C   116 -- C   391       -0.09      5.37202
 C    53 -- C   383       -0.09      5.37202
 C    12 -- C   332       -0.09      5.37202
 C    52 -- C   382       -0.09      5.37202
 C    51 -- C   381       -0.09      5.37202
 C   106 -- C   436       -0.09      5.37202
 C   106 -- C   376       -0.09      5.37202
 C    80 -- C   410       -0.09      5.37202
 C    79 -- C   409       -0.09      5.37202
 C    78 -- C   408       -0.09      5.37202
 C    77 -- C   407       -0.09      5.37202
 C    76 -- C   406       -0.09      5.37202
 C   135 -- C   410       -0.09      5.37202
 C   134 -- C   409       -0.09      5.37202
 C   133 -- C   408       -0.09      5.37202
 C   132 -- C   407       -0.09      5.37202
 C   131 -- C   406       -0.09      5.37202
 C   110 -- C   440       -0.09      5.37202
 C   110 -- C   380       -0.09      5.37202
 C   109 -- C   439       -0.09      5.37202
 C   109 -- C   379       -0.09      5.37202
 C   108 -- C   438       -0.09      5.37202
 C   108 -- C   378       -0.09      5.37202
 C   107 -- C   437       -0.09      5.37202
 C   107 -- C   377       -0.09      5.37202
 C   215 -- C   635       -0.09      5.38000
 C   214 -- C   634       -0.09      5.38000
 C   213 -- C   633       -0.09      5.38000
 C   212 -- C   632       -0.09      5.38000
 C   211 -- C   631       -0.09      5.38000
 C   190 -- C   620       -0.09      5.38000
 C   189 -- C   619       -0.09      5.38000
 C   188 -- C   618       -0.09      5.38000
 C   187 -- C   617       -0.09      5.38000
 C   186 -- C   616       -0.09      5.38000
 C   175 -- C   595       -0.09      5.38000
 C   174 -- C   594       -0.09      5.38000
 C   173 -- C   593       -0.09      5.38000
 C   172 -- C   592       -0.09      5.38000
 C   171 -- C   591       -0.09      5.38000
 C   245 -- C   640       -0.09      5.38000
 C   244 -- C   639       -0.09      5.38000
 C   243 -- C   638       -0.09      5.38000
 C   242 -- C   637       -0.09      5.38000
 C   241 -- C   636       -0.09      5.38000
==================================================


=================== Orbital energy and occupancy information ===================

      Total number of orbitals:    2560
        Occupancy sum (kernel):    1280.000000000
   Occupancy sum (eigenvalues):    1280.000000000
                 HOMO-LUMO gap:       0.000014369 Eh
                 Mid-gap level:       0.237162589 Eh

                        Orbital | Energy (Eh) | Occupancy
                            1    -0.515779034   1.0000000
                        .......   ...........   .........
                         1272     0.166090268   0.9999887
                         1273     0.166552937   0.9999869
                         1274     0.166560403   0.9999869
                         1275     0.168558389   0.9999754
                         1276     0.168567982   0.9999753
                         1277     0.169028167   0.9999714
                         1278     0.169037741   0.9999714
                         1279     0.169403213   0.9999679
                         1280     0.169871593   0.9999627
                         1281     0.237155405   0.0000159
                        ....... -- gap at 0K -- .........
                         1282     0.237169773   0.0000158
                         1283     0.237403670   0.0000147
                         1284     0.237417682   0.0000146
                         1285     0.237429607   0.0000146
                         1286     0.237433503   0.0000146
                         1287     0.237622070   0.0000137
                         1288     0.237686806   0.0000134
                         1289     0.237690624   0.0000134
                         1290     0.237749456   0.0000132
                         1291     0.237764494   0.0000131
                        .......   ...........   .........
                         2560     1.092992144   0.0000000

================================================================================

===================== Writing canonical molecular orbitals =====================
| Orbital  Energy (eV)  Norm     |
| HOMO      6.45332692  1.000000 | Writing "3.8369616_GO_manual_4x64graphite_HOMO.cube" ... done
Writing "3.8369616_GO_manual_4x64graphite_HOMO.dx" ... done
| LUMO      6.45371792  1.000000 | Writing "3.8369616_GO_manual_4x64graphite_LUMO.cube" ... done
Writing "3.8369616_GO_manual_4x64graphite_LUMO.dx" ... done
================================================================================
 
===================== Density of States (DOS) calculation ======================
Writing "3.8369616_GO_manual_4x64graphite_DOS.txt" ...  done
================================================================================
 
Writing bands to file "3.8369616_GO_manual_4x64graphite.val_bands" ... done
 
================ Projected Density of States (pDOS) calculation ================
 
Constructing AM resolved functions  ...... done
Writing NGWF plot files in formats: CUBE DX ...  done
 
Performing overlap integrals ...  done
 
Computing pDOS weights ...  done
 
All bands spilling parameter =   2.97 %
Occupancy-weighted spilling parameter =   0.93 %
 
 => Outputting data for OptaDOS <=
 
Writing pDOS weights to file "3.8369616_GO_manual_4x64graphite.val_pdos_bin" ... done
 
Writing band gradients to file "3.8369616_GO_manual_4x64graphite.val_dome_bin" ... done
 
Writing Castep output cell file to "3.8369616_GO_manual_4x64graphite-out.cell" ... done
 
 => Computing Gaussian smeared pDOS <= 
Writing "3.8369616_GO_manual_4x64graphite_PDOS.txt" ...  done
 
 => Computing Occupancy-weighted Gaussian smeared pDOS <= 
Writing "3.8369616_GO_manual_4x64graphite_occ_PDOS.txt" ...  done
  => Band centres: 
 S band centre of group 1:  -15.603892 eV
 P band centre of group 1:   -8.487592 eV
  Band centres done. <=
  => Integrated number of electrons in each AM band: 
 S num electrons of group 1:  574.053455
 P num electrons of group 1: 1962.089632
  Integrated number of electrons done. <=
================================================================================

------------------------------ TIMING INFORMATION ------------------------------
AVERAGE TIME:    3047.269s on     40 node(s)                                    
TOTAL TIME:      3047.271s on     40 node(s)                                    
================= AVERAGE TIMINGS FROM ALL NODES (CUMULATIVE) ==================
|| TAG                                    #calls    cpu time   %total  Gflops ||
|| work_imbalance                       :     1        0.00s   0.000%  ------ ||
|| paw_tcore_hartree_on_grid            :     1        0.01s   0.000%  ------ ||
|| paw_tcore_density                    :     1        0.01s   0.000%  ------ ||
|| paw_sphere_density_on_grid           :     1        0.01s   0.000%  ------ ||
|| sparse_set_to_garbage                :   135        0.02s   0.001%  ------ ||
|| paw_dij_hartree                      :   275        0.03s   0.001%  ------ ||
|| pseudo_make_structure_factor         :     1        0.06s   0.002%  ------ ||
|| basis_extract_function_from_box      :  1536        0.06s   0.002%  ------ ||
|| paw_species_calc_proj_prec_mat       :     1        0.13s   0.004%  ------ ||
|| paw_dataset_init                     :     1        0.16s   0.005%  ------ ||
|| density_init_guess_real              :     1        0.18s   0.006%  ------ ||
|| ngwfs_initialise_from_radial         :     2        0.67s   0.022%  ------ ||
|| restart_kernel_write                 :    13        0.67s   0.022%  ------ ||
|| sparse_init                          :     1        0.87s   0.029%  ------ ||
|| dense_normal_eigensolve              :     1        1.04s   0.034%  ------ ||
|| hartree_on_grid                      :   206        1.15s   0.038%  ------ ||
|| projectors_init_fftbox_recip         :   121        2.33s   0.076%  ------ ||
|| ewald_calculate_energy               :     1        3.21s   0.105%  ------ ||
|| fourier_apply_box_pair               :  2272        3.76s   0.123% 560.378 ||
|| basis_copy_function_to_box           : 19712        4.26s   0.140%  ------ ||
|| augmentation_screen_dij              :   211        4.62s   0.152%  ------ ||
|| sparse_embed_hotelling_invert_embed  :    23        6.55s   0.215%  ------ ||
|| sw_init                              :     1        6.73s   0.221%  ------ ||
|| ngwf_gradient_coeffs                 :    12        8.57s   0.281%  ------ ||
|| sparse_trace                         :  2486       11.15s   0.366%  ------ ||
|| fourier_apply_cell_backward          :  6357       14.11s   0.463%  61.047 ||
|| fourier_apply_cell_forward           :  5946       14.82s   0.486%  54.364 ||
|| cell_grid_extract_box_real           :  8380       16.18s   0.531%  ------ ||
|| cell_grid_deposit_box_real           : 26544       18.55s   0.609%  ------ ||
|| paw_dij_xc                           :   275       19.84s   0.651%  ------ ||
|| aug_nonlocal_mat                     :   263       28.51s   0.936%  ------ ||
|| augmentation_density_on_grid         :   206       36.62s   1.202%  ------ ||
|| density_fftbox_deposit_to_cell       : 13184       38.30s   1.257%  ------ ||
|| function_ops_brappd_ketppd           :    48       46.19s   1.516%  ------ ||
|| hamiltonian_energy_components        :     3       46.81s   1.536%  ------ ||
|| projectors_func_ovlp_box             :    24       53.48s   1.755%  ------ ||
|| eigenstates_pdos                     :     1       53.99s   1.772%  ------ ||
|| eigenstates_calculate                :     1       58.39s   1.916%  ------ ||
|| nlxc_vdw_energy                      :   410       60.36s   1.981%  ------ ||
|| xc_energy_potential                  :   205       66.09s   2.169%  ------ ||
|| integrals_kinetic                    :    23       74.86s   2.457%  ------ ||
|| dense_eigensolve                     :   179       98.07s   3.218%  ------ ||
|| sparse_product                       :  2528      101.69s   3.337%  ------ ||
|| potential_apply_to_ngwf_batch        :   264      105.42s   3.459%  ------ ||
|| properties_calculate                 :     1      107.42s   3.525%  ------ ||
|| restart_ngwfs_tightbox_output        :    11      122.22s   4.011%  ------ ||
|| basis_dot_function_with_box          : 6.078M     167.26s   5.489%  ------ ||
|| fourier_apply_box                    : 62112      193.19s   6.340% 976.989 ||
|| edft_diag_ngwf_ham                   :   178      207.87s   6.822%  ------ ||
|| projectors_gradient_batch            :    48      218.52s   7.171%  ------ ||
|| integrals_locpot_mat_els_batch       :   264      219.38s   7.199%  ------ ||
|| density_fftbox_interpolate_multiply  : 13184      256.02s   8.402%  ------ ||
|| projectors_grad_precond_batch        :    48      300.82s   9.872%  ------ ||
|| integrals_locpot_dbl_grid            :    66      325.92s  10.695%  ------ ||
|| density_batch_interp_deposit         :   824      328.60s  10.783%  ------ ||
|| edft_apply_smearing_operator         :   178      396.61s  13.015%  ------ ||
|| basis_add_function_to_box            : 16.78M     445.20s  14.610%  ------ ||
|| ngwf_gradient_build_batch            :    48      555.86s  18.241%  ------ ||
|| density_batch_row_sums               :   824      614.38s  20.162%  ------ ||
|| ngwf_gradient_batch                  :    48      731.36s  24.001%  ------ ||
|| ngwf_gradient_lnv                    :    12      752.27s  24.687%  ------ ||
|| density_on_dbl_grid                  :   206      953.90s  31.303%  ------ ||
|| hamiltonian_lhxc_calculate           :   201     1032.95s  33.898%  ------ ||
|| edft_calculate                       :    12     1735.60s  56.956%  ------ ||
|| ngwf_cg_optimise                     :     1     2914.25s  95.635%  ------ ||
|| total_time                           :     1     3047.27s 100.000%  ------ ||
================================================================================
Overhead of generating timer report: 
- 0 ms averaging over threads,
- 5 ms ensuring consistency across MPI ranks,
- 0 ms printing in order.

Job completed: 29-02-2020 09:46 (-0000)

