 +---------------------------------------------------------------+
 |                                                               |
 |        ####### #     # ####### ####### ####### ######         |
 |        #     # ##    # #          #    #       #     #        |
 |        #     # # #   # #          #    #       #     #        |
 |        #     # #  #  # #####      #    #####   ######         |
 |        #     # #   # # #          #    #       #              |
 |        #     # #    ## #          #    #       #              |
 |        ####### #     # #######    #    ####### #              |
 |                                                               |
 |        Linear-Scaling Ab Initio Total Energy Program          |
 |                                                               |
 |          Release for academic collaborators of ODG            |
 |                                             Version 5.3.2.12  |
 |                                                               |
 +---------------------------------------------------------------+
 |                                                               |
 |  Authors:                                                     |
 |  Jacek Dziedzic, Peter D. Haynes, Nicholas D. M. Hine,        |
 |  Arash. A. Mostofi, Mike C. Payne and Chris-Kriton Skylaris   |
 |                                                               |
 |  Contributors:                                                |
 |  J. Aarons, L. Andrinopoulos, P. W. Avraam, R. A. Bell,       |
 |  A. Bhandari, G. A. Bramley, R. J. Charlton, S. J. Clark,     |
 |  R. J. Clements, G. C. Constantinescu, F. Corsetti,           |
 |  N. Corsini, O. Dieguez, S. M. M. Dubois, K. K. B. Duff,      |
 |  J. M. Escartin, A. Greco, H. Helal, Q. O. Hill, L. P. Lee,   |
 |  J.-H. Li, E. B. Linscott, G. Moynihan, D. D. O`Regan,        |
 |  O. K. Okan, M. J. S. Phipps, C. J. Pickard,                  |
 |  J. C. A. Prentice, M. I. J. Probert, L. E. Ratcliff,         |
 |  M. Robinson, A. Ruiz Serrano, J. S. Spencer, E. W. Tait,     |
 |  G. Teobaldi, D. Turban, V. Vitale, K. A. Wilkinson,          |
 |  C. Weber, J. C. Womack, N. Yeung and T. J. Zuehlsdorff       |
 |                                                               |
 |                                   Copyright (c) 2004-2020     |
 |                                                               |
 |  Please cite:                                                 |
 |  "Introducing ONETEP: Linear-scaling density functional       |
 |   simulations on parallel computers".                         |
 |   C.-K. Skylaris, P. D. Haynes, A. A. Mostofi, M. C. Payne.   |
 |   J. Chem. Phys. 122 084119 (2005).                           |
 |                                                               |
 |          in all publications arising from your use of ONETEP. |
 |                                                               |
 +---------------------------------------------------------------+
 |                                                               |
 |   ONETEP is based on developments described in the following  |
 |   publications:                                               |
 |                                                               |
 |  "Nonorthogonal generalized Wannier function pseudopotential  |
 |   plane-wave method".                                         |
 |   C.-K. Skylaris, A. A. Mostofi, P. D. Haynes, O. Dieguez,    |
 |   M. C. Payne.                                                |
 |   Phys. Rev. B 66 035119 (2002).                              |
 |                                                               |
 |  "Preconditioned iterative minimization for linear-scaling    |
 |   electronic structure calculations".                         |
 |   A. A. Mostofi, P. D. Haynes, C.-K. Skylaris, M. C. Payne.   |
 |   J. Chem. Phys. 119(17), pp.8842-8848 (2003).                |
 |                                                               |
 |  "Total-energy calculations on a real space grid with         |
 |   localized functions and a plane-wave basis".                |
 |   A. A. Mostofi, C.-K. Skylaris, P. D. Haynes, M. C. Payne.   |
 |   Comput. Phys. Commun. 147, pp.788-802 (2002).               |
 |                                                               |
 |  "Accurate kinetic energy evaluation in electronic structure  |
 |   calculations with localized functions on real space grids"  |
 |   C.-K. Skylaris, A. A. Mostofi, P. D. Haynes, C. J. Pickard, |
 |   M. C. Payne.                                                |
 |   Comput. Phys. Commun. 140, pp.315-322 (2001).               |
 |                                                               |
 |  "Accurate ionic forces and geometry optimization in linear-  |
 |   scaling density-functional theory with local orbitals"      |
 |   N. D. M. Hine, M. Robinson, P. D. Haynes, C.-K. Skylaris,   |
 |   M. C. Payne, and A. A. Mostofi.                             |
 |   Phys. Rev. B 83 195102 (2011).                              |
 |                                                               |
 +---------------------------------------------------------------+

Job started: 05-03-2020 14:18 (-0000)
 
Reading parameters from file "4.69556_GO_manual_4x64graphite.dat" ...

WARNING: "cutoff_energy" not specified, but "psinc_spacing" specified.
         Using the latter to set the KE cutoff energy to  732.32021eV,
         thus *overriding* the default.

... done

If your calculation crashes here, before "Checking processes and threads..."
is displayed, then your stack size is insufficient.
If so, use "ulimit -s unlimited" at runtime.
You can disable this check with "check_stack_size F".

Checking processes and threads...
   Determining the default number of threads...
      No default threads set at compilation time: defaulting to 1.
      OpenMP library call suggests 4 threads.
      Hybrid MPI-OpenMP compilation detected.
      Number of MPI processes > 1.
      OMP_NUM_THREADS environment variable present and
      its value matches the one obtained from the OpenMP library call.
      Using this value as default.
      Default threads: 4
      Default applies to threads_max and threads_num_fftboxes.
      Settings in the input file override this default.
   ... done

   Running with 40 MPI processes.
   There are 10 MPI processes running on the same node as the root process.
   Each MPI process is using: 
               1 threads for simulation cell FFTs.
               1 threads for parallel FFT box operations.
               4 threads for loops over batched FFT box operations.
               4 threads in other parallel regions.
... done

Basic input checks...
Resetting ngwf_cg_rotate to TRUE for EDFT calculations
... done

Reading geometry and species blocks from file "4.69556_GO_manual_4x64graphite.dat" ...
    
  PSINC grid spacing along a1 set to   0.511215680000a0 from input file.
  PSINC grid spacing along a2 set to   0.531284090000a0 from input file.
  PSINC grid spacing along a3 set to   0.507048030000a0 from input file.
  Number of PPD points along a3 set to 1.  This is 
  the default value, it may have been provided also in the input file.
... done
 Writing xyz coordinates to file "4.69556_GO_manual_4x64graphite.xyz" ... done


--------------------------------------------------------------------------------
---------------------------------- INPUT FILE ----------------------------------
--------------------------------------------------------------------------------

task : singlepoint                                                              
do_properties : true                                                            
dx_format T                                                                     
edft T                                                                          
output_detail VERBOSE                                                           
write_xyz T                                                                     
xc_functional OPTB88                                                            
PSINC_SPACING 0.51121568 0.53128409 0.50704803                                  
paw T                                                                           
pdos_max_l = 2                                                                  
dos_smear  0.1 eV                                                               
popn_calculate T                                                                
PDOS_PSEUDOATOMIC T                                                             
PDOS_REDUCE_SWS F                                                               
PDOS_CONSTRUCT_BASIS F                                                          
PDOS_LOWDIN T                                                                   
PDOS_ORTH_ATOM_BLOCKS F                                                         
PDOS_LCAO_OPTIMIZE F                                                            
pdos_optados_output T                                                           
homo_plot 0                                                                     
lumo_plot 0                                                                     
homo_dens_plot -1                                                               
lumo_dens_plot -1                                                               
%BLOCK SPECIES                                                                  
C C 6 4 9.0                                                                     
%ENDBLOCK SPECIES                                                               
%BLOCK SPECIES_POT                                                              
C "~/pp/paw/c_pbe_abinit.paw"                                                   
%ENDBLOCK SPECIES_POT                                                           
%BLOCK SPECIES_ATOMIC_SET                                                       
C "SOLVE conf=2s2 2p2"                                                          
%ENDBLOCK SPECIES_ATOMIC_SET                                                    
%BLOCK LATTICE_CART                                                             
32.21  0.00  0.00                                                               
0.00 18.59  0.00                                                                
0.00  0.00 88.73                                                                
%ENDBLOCK LATTICE_CART                                                          
%BLOCK POSITIONS_ABS                                                            
C  0.00  0.00  4.44                                                             
C  0.00  0.00 22.18                                                             
C  0.00  0.00 39.93                                                             
C  0.00  0.00 57.68                                                             
C  0.00  0.00 75.42                                                             
C  0.00  4.65  4.44                                                             
C  0.00  4.65 22.18                                                             
C  0.00  4.65 39.93                                                             
C  0.00  4.65 57.68                                                             
C  0.00  4.65 75.42                                                             
C  4.03  2.32  4.44                                                             
C  4.03  2.32 22.18                                                             
C  4.03  2.32 39.93                                                             
C  4.03  2.32 57.68                                                             
C  4.03  2.32 75.42                                                             
C  8.05  0.00  4.44                                                             
C  8.05  0.00 22.18                                                             
C  8.05  0.00 39.93                                                             
C  8.05  0.00 57.68                                                             
C  8.05  0.00 75.42                                                             
C  0.00  9.30  4.44                                                             
C  0.00  9.30 22.18                                                             
C  0.00  9.30 39.93                                                             
C  0.00  9.30 57.68                                                             
C  0.00  9.30 75.42                                                             
C  4.03  6.97  4.44                                                             
C  4.03  6.97 22.18                                                             
C  4.03  6.97 39.93                                                             
C  4.03  6.97 57.68                                                             
C  4.03  6.97 75.42                                                             
C  8.05  4.65  4.44                                                             
C  8.05  4.65 22.18                                                             
C  8.05  4.65 39.93                                                             
C  8.05  4.65 57.68                                                             
C  8.05  4.65 75.42                                                             
C 12.08  2.32  4.44                                                             
C 12.08  2.32 22.18                                                             
C 12.08  2.32 39.93                                                             
C 12.08  2.32 57.68                                                             
C 12.08  2.32 75.42                                                             
C 16.10  0.00  4.44                                                             
C 16.10  0.00 22.18                                                             
C 16.10  0.00 39.93                                                             
C 16.10  0.00 57.68                                                             
C 16.10  0.00 75.42                                                             
C  0.00 13.95  4.44                                                             
C  0.00 13.95 22.18                                                             
C  0.00 13.95 39.93                                                             
C  0.00 13.95 57.68                                                             
C  0.00 13.95 75.42                                                             
C  4.03 11.62  4.44                                                             
C  4.03 11.62 22.18                                                             
C  4.03 11.62 39.93                                                             
C  4.03 11.62 57.68                                                             
C  4.03 11.62 75.42                                                             
C  8.05  9.30  4.44                                                             
C  8.05  9.30 22.18                                                             
C  8.05  9.30 39.93                                                             
C  8.05  9.30 57.68                                                             
C  8.05  9.30 75.42                                                             
C 12.08  6.97  4.44                                                             
C 12.08  6.97 22.18                                                             
C 12.08  6.97 39.93                                                             
C 12.08  6.97 57.68                                                             
C 12.08  6.97 75.42                                                             
C 16.10  4.65  4.44                                                             
C 16.10  4.65 22.18                                                             
C 16.10  4.65 39.93                                                             
C 16.10  4.65 57.68                                                             
C 16.10  4.65 75.42                                                             
C 20.13  2.32  4.44                                                             
C 20.13  2.32 22.18                                                             
C 20.13  2.32 39.93                                                             
C 20.13  2.32 57.68                                                             
C 20.13  2.32 75.42                                                             
C 24.16  0.00  4.44                                                             
C 24.16  0.00 22.18                                                             
C 24.16  0.00 39.93                                                             
C 24.16  0.00 57.68                                                             
C 24.16  0.00 75.42                                                             
C  4.03 16.27  4.44                                                             
C  4.03 16.27 22.18                                                             
C  4.03 16.27 39.93                                                             
C  4.03 16.27 57.68                                                             
C  4.03 16.27 75.42                                                             
C  8.05 13.95  4.44                                                             
C  8.05 13.95 22.18                                                             
C  8.05 13.95 39.93                                                             
C  8.05 13.95 57.68                                                             
C  8.05 13.95 75.42                                                             
C 12.08 11.62  4.44                                                             
C 12.08 11.62 22.18                                                             
C 12.08 11.62 39.93                                                             
C 12.08 11.62 57.68                                                             
C 12.08 11.62 75.42                                                             
C 16.10  9.30  4.44                                                             
C 16.10  9.30 22.18                                                             
C 16.10  9.30 39.93                                                             
C 16.10  9.30 57.68                                                             
C 16.10  9.30 75.42                                                             
C 20.13  6.97  4.44                                                             
C 20.13  6.97 22.18                                                             
C 20.13  6.97 39.93                                                             
C 20.13  6.97 57.68                                                             
C 20.13  6.97 75.42                                                             
C 24.16  4.65  4.44                                                             
C 24.16  4.65 22.18                                                             
C 24.16  4.65 39.93                                                             
C 24.16  4.65 57.68                                                             
C 24.16  4.65 75.42                                                             
C 28.18  2.32  4.44                                                             
C 28.18  2.32 22.18                                                             
C 28.18  2.32 39.93                                                             
C 28.18  2.32 57.68                                                             
C 28.18  2.32 75.42                                                             
C 12.08 16.27  4.44                                                             
C 12.08 16.27 22.18                                                             
C 12.08 16.27 39.93                                                             
C 12.08 16.27 57.68                                                             
C 12.08 16.27 75.42                                                             
C 16.10 13.95  4.44                                                             
C 16.10 13.95 22.18                                                             
C 16.10 13.95 39.93                                                             
C 16.10 13.95 57.68                                                             
C 16.10 13.95 75.42                                                             
C 20.13 11.62  4.44                                                             
C 20.13 11.62 22.18                                                             
C 20.13 11.62 39.93                                                             
C 20.13 11.62 57.68                                                             
C 20.13 11.62 75.42                                                             
C 24.16  9.30  4.44                                                             
C 24.16  9.30 22.18                                                             
C 24.16  9.30 39.93                                                             
C 24.16  9.30 57.68                                                             
C 24.16  9.30 75.42                                                             
C 28.18  6.97  4.44                                                             
C 28.18  6.97 22.18                                                             
C 28.18  6.97 39.93                                                             
C 28.18  6.97 57.68                                                             
C 28.18  6.97 75.42                                                             
C 20.13 16.27  4.44                                                             
C 20.13 16.27 22.18                                                             
C 20.13 16.27 39.93                                                             
C 20.13 16.27 57.68                                                             
C 20.13 16.27 75.42                                                             
C 24.16 13.95  4.44                                                             
C 24.16 13.95 22.18                                                             
C 24.16 13.95 39.93                                                             
C 24.16 13.95 57.68                                                             
C 24.16 13.95 75.42                                                             
C 28.18 11.62  4.44                                                             
C 28.18 11.62 22.18                                                             
C 28.18 11.62 39.93                                                             
C 28.18 11.62 57.68                                                             
C 28.18 11.62 75.42                                                             
C 28.18 16.27  4.44                                                             
C 28.18 16.27 22.18                                                             
C 28.18 16.27 39.93                                                             
C 28.18 16.27 57.68                                                             
C 28.18 16.27 75.42                                                             
C  0.00  0.00 13.31                                                             
C  0.00  0.00 31.06                                                             
C  0.00  0.00 48.80                                                             
C  0.00  0.00 66.55                                                             
C  0.00  0.00 84.30                                                             
C  0.00  4.65 13.31                                                             
C  0.00  4.65 31.06                                                             
C  0.00  4.65 48.80                                                             
C  0.00  4.65 66.55                                                             
C  0.00  4.65 84.30                                                             
C  4.03  2.32 13.31                                                             
C  4.03  2.32 31.06                                                             
C  4.03  2.32 48.80                                                             
C  4.03  2.32 66.55                                                             
C  4.03  2.32 84.30                                                             
C  8.05  0.00 13.31                                                             
C  8.05  0.00 31.06                                                             
C  8.05  0.00 48.80                                                             
C  8.05  0.00 66.55                                                             
C  8.05  0.00 84.30                                                             
C  0.00  9.30 13.31                                                             
C  0.00  9.30 31.06                                                             
C  0.00  9.30 48.80                                                             
C  0.00  9.30 66.55                                                             
C  0.00  9.30 84.30                                                             
C  4.03  6.97 13.31                                                             
C  4.03  6.97 31.06                                                             
C  4.03  6.97 48.80                                                             
C  4.03  6.97 66.55                                                             
C  4.03  6.97 84.30                                                             
C  8.05  4.65 13.31                                                             
C  8.05  4.65 31.06                                                             
C  8.05  4.65 48.80                                                             
C  8.05  4.65 66.55                                                             
C  8.05  4.65 84.30                                                             
C 12.08  2.32 13.31                                                             
C 12.08  2.32 31.06                                                             
C 12.08  2.32 48.80                                                             
C 12.08  2.32 66.55                                                             
C 12.08  2.32 84.30                                                             
C 16.10  0.00 13.31                                                             
C 16.10  0.00 31.06                                                             
C 16.10  0.00 48.80                                                             
C 16.10  0.00 66.55                                                             
C 16.10  0.00 84.30                                                             
C  0.00 13.95 13.31                                                             
C  0.00 13.95 31.06                                                             
C  0.00 13.95 48.80                                                             
C  0.00 13.95 66.55                                                             
C  0.00 13.95 84.30                                                             
C  4.03 11.62 13.31                                                             
C  4.03 11.62 31.06                                                             
C  4.03 11.62 48.80                                                             
C  4.03 11.62 66.55                                                             
C  4.03 11.62 84.30                                                             
C  8.05  9.30 13.31                                                             
C  8.05  9.30 31.06                                                             
C  8.05  9.30 48.80                                                             
C  8.05  9.30 66.55                                                             
C  8.05  9.30 84.30                                                             
C 12.08  6.97 13.31                                                             
C 12.08  6.97 31.06                                                             
C 12.08  6.97 48.80                                                             
C 12.08  6.97 66.55                                                             
C 12.08  6.97 84.30                                                             
C 16.10  4.65 13.31                                                             
C 16.10  4.65 31.06                                                             
C 16.10  4.65 48.80                                                             
C 16.10  4.65 66.55                                                             
C 16.10  4.65 84.30                                                             
C 20.13  2.32 13.31                                                             
C 20.13  2.32 31.06                                                             
C 20.13  2.32 48.80                                                             
C 20.13  2.32 66.55                                                             
C 20.13  2.32 84.30                                                             
C 24.16  0.00 13.31                                                             
C 24.16  0.00 31.06                                                             
C 24.16  0.00 48.80                                                             
C 24.16  0.00 66.55                                                             
C 24.16  0.00 84.30                                                             
C  4.03 16.27 13.31                                                             
C  4.03 16.27 31.06                                                             
C  4.03 16.27 48.80                                                             
C  4.03 16.27 66.55                                                             
C  4.03 16.27 84.30                                                             
C  8.05 13.95 13.31                                                             
C  8.05 13.95 31.06                                                             
C  8.05 13.95 48.80                                                             
C  8.05 13.95 66.55                                                             
C  8.05 13.95 84.30                                                             
C 12.08 11.62 13.31                                                             
C 12.08 11.62 31.06                                                             
C 12.08 11.62 48.80                                                             
C 12.08 11.62 66.55                                                             
C 12.08 11.62 84.30                                                             
C 16.10  9.30 13.31                                                             
C 16.10  9.30 31.06                                                             
C 16.10  9.30 48.80                                                             
C 16.10  9.30 66.55                                                             
C 16.10  9.30 84.30                                                             
C 20.13  6.97 13.31                                                             
C 20.13  6.97 31.06                                                             
C 20.13  6.97 48.80                                                             
C 20.13  6.97 66.55                                                             
C 20.13  6.97 84.30                                                             
C 24.16  4.65 13.31                                                             
C 24.16  4.65 31.06                                                             
C 24.16  4.65 48.80                                                             
C 24.16  4.65 66.55                                                             
C 24.16  4.65 84.30                                                             
C 28.18  2.32 13.31                                                             
C 28.18  2.32 31.06                                                             
C 28.18  2.32 48.80                                                             
C 28.18  2.32 66.55                                                             
C 28.18  2.32 84.30                                                             
C 12.08 16.27 13.31                                                             
C 12.08 16.27 31.06                                                             
C 12.08 16.27 48.80                                                             
C 12.08 16.27 66.55                                                             
C 12.08 16.27 84.30                                                             
C 16.10 13.95 13.31                                                             
C 16.10 13.95 31.06                                                             
C 16.10 13.95 48.80                                                             
C 16.10 13.95 66.55                                                             
C 16.10 13.95 84.30                                                             
C 20.13 11.62 13.31                                                             
C 20.13 11.62 31.06                                                             
C 20.13 11.62 48.80                                                             
C 20.13 11.62 66.55                                                             
C 20.13 11.62 84.30                                                             
C 24.16  9.30 13.31                                                             
C 24.16  9.30 31.06                                                             
C 24.16  9.30 48.80                                                             
C 24.16  9.30 66.55                                                             
C 24.16  9.30 84.30                                                             
C 28.18  6.97 13.31                                                             
C 28.18  6.97 31.06                                                             
C 28.18  6.97 48.80                                                             
C 28.18  6.97 66.55                                                             
C 28.18  6.97 84.30                                                             
C 20.13 16.27 13.31                                                             
C 20.13 16.27 31.06                                                             
C 20.13 16.27 48.80                                                             
C 20.13 16.27 66.55                                                             
C 20.13 16.27 84.30                                                             
C 24.16 13.95 13.31                                                             
C 24.16 13.95 31.06                                                             
C 24.16 13.95 48.80                                                             
C 24.16 13.95 66.55                                                             
C 24.16 13.95 84.30                                                             
C 28.18 11.62 13.31                                                             
C 28.18 11.62 31.06                                                             
C 28.18 11.62 48.80                                                             
C 28.18 11.62 66.55                                                             
C 28.18 11.62 84.30                                                             
C 28.18 16.27 13.31                                                             
C 28.18 16.27 31.06                                                             
C 28.18 16.27 48.80                                                             
C 28.18 16.27 66.55                                                             
C 28.18 16.27 84.30                                                             
C  1.34  2.32  4.44                                                             
C  1.34  2.32 22.18                                                             
C  1.34  2.32 39.93                                                             
C  1.34  2.32 57.68                                                             
C  1.34  2.32 75.42                                                             
C  5.37  0.00  4.44                                                             
C  5.37  0.00 22.18                                                             
C  5.37  0.00 39.93                                                             
C  5.37  0.00 57.68                                                             
C  5.37  0.00 75.42                                                             
C  1.34  6.97  4.44                                                             
C  1.34  6.97 22.18                                                             
C  1.34  6.97 39.93                                                             
C  1.34  6.97 57.68                                                             
C  1.34  6.97 75.42                                                             
C  5.37  4.65  4.44                                                             
C  5.37  4.65 22.18                                                             
C  5.37  4.65 39.93                                                             
C  5.37  4.65 57.68                                                             
C  5.37  4.65 75.42                                                             
C  9.39  2.32  4.44                                                             
C  9.39  2.32 22.18                                                             
C  9.39  2.32 39.93                                                             
C  9.39  2.32 57.68                                                             
C  9.39  2.32 75.42                                                             
C 13.42  0.00  4.44                                                             
C 13.42  0.00 22.18                                                             
C 13.42  0.00 39.93                                                             
C 13.42  0.00 57.68                                                             
C 13.42  0.00 75.42                                                             
C  1.34 11.62  4.44                                                             
C  1.34 11.62 22.18                                                             
C  1.34 11.62 39.93                                                             
C  1.34 11.62 57.68                                                             
C  1.34 11.62 75.42                                                             
C  5.37  9.30  4.44                                                             
C  5.37  9.30 22.18                                                             
C  5.37  9.30 39.93                                                             
C  5.37  9.30 57.68                                                             
C  5.37  9.30 75.42                                                             
C  9.39  6.97  4.44                                                             
C  9.39  6.97 22.18                                                             
C  9.39  6.97 39.93                                                             
C  9.39  6.97 57.68                                                             
C  9.39  6.97 75.42                                                             
C 13.42  4.65  4.44                                                             
C 13.42  4.65 22.18                                                             
C 13.42  4.65 39.93                                                             
C 13.42  4.65 57.68                                                             
C 13.42  4.65 75.42                                                             
C 17.45  2.32  4.44                                                             
C 17.45  2.32 22.18                                                             
C 17.45  2.32 39.93                                                             
C 17.45  2.32 57.68                                                             
C 17.45  2.32 75.42                                                             
C 21.47  0.00  4.44                                                             
C 21.47  0.00 22.18                                                             
C 21.47  0.00 39.93                                                             
C 21.47  0.00 57.68                                                             
C 21.47  0.00 75.42                                                             
C  1.34 16.27  4.44                                                             
C  1.34 16.27 22.18                                                             
C  1.34 16.27 39.93                                                             
C  1.34 16.27 57.68                                                             
C  1.34 16.27 75.42                                                             
C  5.37 13.95  4.44                                                             
C  5.37 13.95 22.18                                                             
C  5.37 13.95 39.93                                                             
C  5.37 13.95 57.68                                                             
C  5.37 13.95 75.42                                                             
C  9.39 11.62  4.44                                                             
C  9.39 11.62 22.18                                                             
C  9.39 11.62 39.93                                                             
C  9.39 11.62 57.68                                                             
C  9.39 11.62 75.42                                                             
C 13.42  9.30  4.44                                                             
C 13.42  9.30 22.18                                                             
C 13.42  9.30 39.93                                                             
C 13.42  9.30 57.68                                                             
C 13.42  9.30 75.42                                                             
C 17.45  6.97  4.44                                                             
C 17.45  6.97 22.18                                                             
C 17.45  6.97 39.93                                                             
C 17.45  6.97 57.68                                                             
C 17.45  6.97 75.42                                                             
C 21.47  4.65  4.44                                                             
C 21.47  4.65 22.18                                                             
C 21.47  4.65 39.93                                                             
C 21.47  4.65 57.68                                                             
C 21.47  4.65 75.42                                                             
C 25.50  2.32  4.44                                                             
C 25.50  2.32 22.18                                                             
C 25.50  2.32 39.93                                                             
C 25.50  2.32 57.68                                                             
C 25.50  2.32 75.42                                                             
C 29.52  0.00  4.44                                                             
C 29.52  0.00 22.18                                                             
C 29.52  0.00 39.93                                                             
C 29.52  0.00 57.68                                                             
C 29.52  0.00 75.42                                                             
C  9.39 16.27  4.44                                                             
C  9.39 16.27 22.18                                                             
C  9.39 16.27 39.93                                                             
C  9.39 16.27 57.68                                                             
C  9.39 16.27 75.42                                                             
C 13.42 13.95  4.44                                                             
C 13.42 13.95 22.18                                                             
C 13.42 13.95 39.93                                                             
C 13.42 13.95 57.68                                                             
C 13.42 13.95 75.42                                                             
C 17.45 11.62  4.44                                                             
C 17.45 11.62 22.18                                                             
C 17.45 11.62 39.93                                                             
C 17.45 11.62 57.68                                                             
C 17.45 11.62 75.42                                                             
C 21.47  9.30  4.44                                                             
C 21.47  9.30 22.18                                                             
C 21.47  9.30 39.93                                                             
C 21.47  9.30 57.68                                                             
C 21.47  9.30 75.42                                                             
C 25.50  6.97  4.44                                                             
C 25.50  6.97 22.18                                                             
C 25.50  6.97 39.93                                                             
C 25.50  6.97 57.68                                                             
C 25.50  6.97 75.42                                                             
C 29.52  4.65  4.44                                                             
C 29.52  4.65 22.18                                                             
C 29.52  4.65 39.93                                                             
C 29.52  4.65 57.68                                                             
C 29.52  4.65 75.42                                                             
C 17.45 16.27  4.44                                                             
C 17.45 16.27 22.18                                                             
C 17.45 16.27 39.93                                                             
C 17.45 16.27 57.68                                                             
C 17.45 16.27 75.42                                                             
C 21.47 13.95  4.44                                                             
C 21.47 13.95 22.18                                                             
C 21.47 13.95 39.93                                                             
C 21.47 13.95 57.68                                                             
C 21.47 13.95 75.42                                                             
C 25.50 11.62  4.44                                                             
C 25.50 11.62 22.18                                                             
C 25.50 11.62 39.93                                                             
C 25.50 11.62 57.68                                                             
C 25.50 11.62 75.42                                                             
C 29.52  9.30  4.44                                                             
C 29.52  9.30 22.18                                                             
C 29.52  9.30 39.93                                                             
C 29.52  9.30 57.68                                                             
C 29.52  9.30 75.42                                                             
C 25.50 16.27  4.44                                                             
C 25.50 16.27 22.18                                                             
C 25.50 16.27 39.93                                                             
C 25.50 16.27 57.68                                                             
C 25.50 16.27 75.42                                                             
C 29.52 13.95  4.44                                                             
C 29.52 13.95 22.18                                                             
C 29.52 13.95 39.93                                                             
C 29.52 13.95 57.68                                                             
C 29.52 13.95 75.42                                                             
C  2.68  0.00 13.31                                                             
C  2.68  0.00 31.06                                                             
C  2.68  0.00 48.80                                                             
C  2.68  0.00 66.55                                                             
C  2.68  0.00 84.30                                                             
C  2.68  4.65 13.31                                                             
C  2.68  4.65 31.06                                                             
C  2.68  4.65 48.80                                                             
C  2.68  4.65 66.55                                                             
C  2.68  4.65 84.30                                                             
C  6.71  2.32 13.31                                                             
C  6.71  2.32 31.06                                                             
C  6.71  2.32 48.80                                                             
C  6.71  2.32 66.55                                                             
C  6.71  2.32 84.30                                                             
C 10.74  0.00 13.31                                                             
C 10.74  0.00 31.06                                                             
C 10.74  0.00 48.80                                                             
C 10.74  0.00 66.55                                                             
C 10.74  0.00 84.30                                                             
C  2.68  9.30 13.31                                                             
C  2.68  9.30 31.06                                                             
C  2.68  9.30 48.80                                                             
C  2.68  9.30 66.55                                                             
C  2.68  9.30 84.30                                                             
C  6.71  6.97 13.31                                                             
C  6.71  6.97 31.06                                                             
C  6.71  6.97 48.80                                                             
C  6.71  6.97 66.55                                                             
C  6.71  6.97 84.30                                                             
C 10.74  4.65 13.31                                                             
C 10.74  4.65 31.06                                                             
C 10.74  4.65 48.80                                                             
C 10.74  4.65 66.55                                                             
C 10.74  4.65 84.30                                                             
C 14.76  2.32 13.31                                                             
C 14.76  2.32 31.06                                                             
C 14.76  2.32 48.80                                                             
C 14.76  2.32 66.55                                                             
C 14.76  2.32 84.30                                                             
C 18.79  0.00 13.31                                                             
C 18.79  0.00 31.06                                                             
C 18.79  0.00 48.80                                                             
C 18.79  0.00 66.55                                                             
C 18.79  0.00 84.30                                                             
C  2.68 13.95 13.31                                                             
C  2.68 13.95 31.06                                                             
C  2.68 13.95 48.80                                                             
C  2.68 13.95 66.55                                                             
C  2.68 13.95 84.30                                                             
C  6.71 11.62 13.31                                                             
C  6.71 11.62 31.06                                                             
C  6.71 11.62 48.80                                                             
C  6.71 11.62 66.55                                                             
C  6.71 11.62 84.30                                                             
C 10.74  9.30 13.31                                                             
C 10.74  9.30 31.06                                                             
C 10.74  9.30 48.80                                                             
C 10.74  9.30 66.55                                                             
C 10.74  9.30 84.30                                                             
C 14.76  6.97 13.31                                                             
C 14.76  6.97 31.06                                                             
C 14.76  6.97 48.80                                                             
C 14.76  6.97 66.55                                                             
C 14.76  6.97 84.30                                                             
C 18.79  4.65 13.31                                                             
C 18.79  4.65 31.06                                                             
C 18.79  4.65 48.80                                                             
C 18.79  4.65 66.55                                                             
C 18.79  4.65 84.30                                                             
C 22.81  2.32 13.31                                                             
C 22.81  2.32 31.06                                                             
C 22.81  2.32 48.80                                                             
C 22.81  2.32 66.55                                                             
C 22.81  2.32 84.30                                                             
C 26.84  0.00 13.31                                                             
C 26.84  0.00 31.06                                                             
C 26.84  0.00 48.80                                                             
C 26.84  0.00 66.55                                                             
C 26.84  0.00 84.30                                                             
C  6.71 16.27 13.31                                                             
C  6.71 16.27 31.06                                                             
C  6.71 16.27 48.80                                                             
C  6.71 16.27 66.55                                                             
C  6.71 16.27 84.30                                                             
C 10.74 13.95 13.31                                                             
C 10.74 13.95 31.06                                                             
C 10.74 13.95 48.80                                                             
C 10.74 13.95 66.55                                                             
C 10.74 13.95 84.30                                                             
C 14.76 11.62 13.31                                                             
C 14.76 11.62 31.06                                                             
C 14.76 11.62 48.80                                                             
C 14.76 11.62 66.55                                                             
C 14.76 11.62 84.30                                                             
C 18.79  9.30 13.31                                                             
C 18.79  9.30 31.06                                                             
C 18.79  9.30 48.80                                                             
C 18.79  9.30 66.55                                                             
C 18.79  9.30 84.30                                                             
C 22.81  6.97 13.31                                                             
C 22.81  6.97 31.06                                                             
C 22.81  6.97 48.80                                                             
C 22.81  6.97 66.55                                                             
C 22.81  6.97 84.30                                                             
C 26.84  4.65 13.31                                                             
C 26.84  4.65 31.06                                                             
C 26.84  4.65 48.80                                                             
C 26.84  4.65 66.55                                                             
C 26.84  4.65 84.30                                                             
C 30.86  2.32 13.31                                                             
C 30.86  2.32 31.06                                                             
C 30.86  2.32 48.80                                                             
C 30.86  2.32 66.55                                                             
C 30.86  2.32 84.30                                                             
C 14.76 16.27 13.31                                                             
C 14.76 16.27 31.06                                                             
C 14.76 16.27 48.80                                                             
C 14.76 16.27 66.55                                                             
C 14.76 16.27 84.30                                                             
C 18.79 13.95 13.31                                                             
C 18.79 13.95 31.06                                                             
C 18.79 13.95 48.80                                                             
C 18.79 13.95 66.55                                                             
C 18.79 13.95 84.30                                                             
C 22.81 11.62 13.31                                                             
C 22.81 11.62 31.06                                                             
C 22.81 11.62 48.80                                                             
C 22.81 11.62 66.55                                                             
C 22.81 11.62 84.30                                                             
C 26.84  9.30 13.31                                                             
C 26.84  9.30 31.06                                                             
C 26.84  9.30 48.80                                                             
C 26.84  9.30 66.55                                                             
C 26.84  9.30 84.30                                                             
C 30.86  6.97 13.31                                                             
C 30.86  6.97 31.06                                                             
C 30.86  6.97 48.80                                                             
C 30.86  6.97 66.55                                                             
C 30.86  6.97 84.30                                                             
C 22.81 16.27 13.31                                                             
C 22.81 16.27 31.06                                                             
C 22.81 16.27 48.80                                                             
C 22.81 16.27 66.55                                                             
C 22.81 16.27 84.30                                                             
C 26.84 13.95 13.31                                                             
C 26.84 13.95 31.06                                                             
C 26.84 13.95 48.80                                                             
C 26.84 13.95 66.55                                                             
C 26.84 13.95 84.30                                                             
C 30.86 11.62 13.31                                                             
C 30.86 11.62 31.06                                                             
C 30.86 11.62 48.80                                                             
C 30.86 11.62 66.55                                                             
C 30.86 11.62 84.30                                                             
C 30.86 16.27 13.31                                                             
C 30.86 16.27 31.06                                                             
C 30.86 16.27 48.80                                                             
C 30.86 16.27 66.55                                                             
C 30.86 16.27 84.30                                                             
%ENDBLOCK POSITIONS_ABS                                                         

--------------------------------------------------------------------------------
-------------------------------- END INPUT FILE --------------------------------
--------------------------------------------------------------------------------


 
<<<<<<<<<<<<<<<<<<<<<<<<<<<<<<<<< Full system >>>>>>>>>>>>>>>>>>>>>>>>>>>>>>>>>>
<<<<<<<<<<<<<<<<<<<<<<<<<<< PAW Dataset information >>>>>>>>>>>>>>>>>>>>>>>>>>>
File: ~/pp/paw/c_pbe_abinit.paw; rc = 1.25 bohr; shape type =  3; rshape = 1.25 bohr;
  Atomic number:  6;  ionic charge:  4.000000
    Partial Wave 1: l = 0
    Partial Wave 2: l = 0
    Partial Wave 3: l = 1
    Partial Wave 4: l = 1
  Core charge supplied for Nonlinear Core Corrections
<<<<<<<<<<<<<<<<<<<<<<<<<<<<<<<<<<<<<<< >>>>>>>>>>>>>>>>>>>>>>>>>>>>>>>>>>>>>>>

-------------------------- Atom counting information ---------------------------
Symbol    Natoms    Nngwfs    Nprojs
  C        640      2560      5120
.......   ......    ......    ......
Totals:    640      2560      5120
--------------------------------------------------------------------------------

=============================== PSINC grid sizes ===============================
                      Simulation cell:   63 x  35 x 175
                              FFT-box:   63 x  35 x 117
                                  PPD:    7 x   5 x   1
Grid space d1=  0.511269841270a0 (KE cutoff=  29.06054Eh = 790.77748eV)
Grid space d2=  0.531142857143a0 (KE cutoff=  26.92659Eh = 732.70972eV)
Grid space d3=  0.507028571429a0 (KE cutoff=  29.54875Eh = 804.06244eV)
================================================================================
  
WARNING in cell_grid_distribute:
Average of less than one 23-slab per node, so workload cannot be
equally balanced between nodes.

********************* Fourier parallelisation information **********************
       Coarse grid (whole simulation cell) dimensions:     63    35   175
          Real-space ('12') slabs/node (min max mean):      4     5     4
         Recip-space ('23') slabs/node (min max mean):      0     1     0
********************************************************************************

********************* Fourier parallelisation information **********************
       Double grid (whole simulation cell) dimensions:    126    70   350
          Real-space ('12') slabs/node (min max mean):      8     9     8
         Recip-space ('23') slabs/node (min max mean):      1     2     1
********************************************************************************

Atom SCF Calculation for C  : Z (AE atom) =   6 : Z (PS atom) =   4
Config String: 2s2 2p2
Orbitals (num,occ):  2     2.00 2.00
Orbitals   (num,l):  2        0    1
Real-space Grid (nr,dr,rmax): 1293    0.0069659443    9.0000000000
Spherical Bessel Basis (nsws,lmax,cutoff):   37    2  161.4736382572
Confining potential (l,width,scale):  0    3.0000000000  100.0000000000
Confining potential (l,width,scale):  1    3.0000000000  100.0000000000
  1         -5.4468762137   -1.3311033486    4.5135257941   -1.6400141247
  2         -5.4563922850   -1.3925089082    4.4492606193   -1.6178955363
  3         -5.4591606672   -1.4162756486    4.4239316220   -1.6104942496
  4         -5.4639338613   -1.4240698331    4.4156521757   -1.6083566999
  5         -5.4657436445   -1.4272842389    4.4122438165   -1.6075116305
  6         -5.4665049591   -1.4285796230    4.4108740217   -1.6071800157
  7         -5.4668137280   -1.4291083664    4.4103163978   -1.6070462938
  8         -5.4669397753   -1.4293243321    4.4100892688   -1.6069921003
  9         -5.4669910134   -1.4294128082    4.4099964732   -1.6069700140
 10         -5.4670118707   -1.4294491026    4.4099585094   -1.6069609935
 11         -5.4670203648   -1.4294640137    4.4099429536   -1.6069573023
 12         -5.4670238269   -1.4294701480    4.4099365706   -1.6069557895
 13         -5.4670252393   -1.4294726750    4.4099339478   -1.6069551687
 14         -5.4670258160   -1.4294737172    4.4099328686   -1.6069549136
 15         -5.4670260518   -1.4294741476    4.4099324241   -1.6069548086
 16         -5.4670261483   -1.4294743256    4.4099322407   -1.6069547654
Atom SCF converged after  16 iterations to a total energy of     -5.46702615

Determining parallel strategy ...
... using space-filling curve
... NGWF load balancing: max     64;  min     64;  average     64
... Projector load balancing: max    128;  min    128;  average    128
... done
Calculating Ewald energy ...
              Ewald: real-space energy =    9654.819042
        Ewald: reciprocal-space energy =       4.452557
         Ewald: (sum_charge)**2 Energy =   10114.468781
         Ewald: (sum_charge**2) Energy =     799.618967
                          Ewald Energy =   -1254.816148
Basis initialisation ...... NGWF spheres initialised
... Projector spheres initialised
... NGWF tight boxes initialised
... Projector tight boxes initialised
... Tight-boxes gathered
... NGWF basis size (local,global):     692500  27889536
... PAW projector initialisation
... done

============================= Charge Augmentation ==============================
                           Aug box size:   11 x  11 x  11
================================================================================

========================== Sparse matrix information ===========================
                        Overlap matrix filling:  29.06%
                        Density kernel filling: 100.00%
              NGWF-Proj overlap matrix filling:   7.97%
                    Aug Overlap matrix filling:  35.62%
                    Hamiltonian matrix filling:  35.62%
                  NGWF diagonal matrix filling:   0.16%
                             KS matrix filling: 100.00% 
                           KSKS matrix filling: 100.00% 
================================================================================

Sparse matrix initialisation ... done
NGWF initialisation ...... done
============ Calculation of NGWF S^-1 using Hotelling algorithm ================ 
         Iteration  |  Frobenius norm and Maximum abs value    (of I-S*S_n^-1)   
               1       0.48733623E+02     0.97150360E+00
               2       0.47301949E+02     0.94505212E+00
               3       0.45238122E+02     0.89746470E+00
               4       0.42657343E+02     0.81909828E+00
               5       0.39621412E+02     0.71431699E+00
               6       0.36211812E+02     0.66199506E+00
               7       0.32811203E+02     0.61760512E+00
               8       0.29526256E+02     0.57898318E+00
               9       0.25780527E+02     0.53024921E+00
              10       0.20912575E+02     0.45065732E+00
              11       0.14688756E+02     0.32910580E+00
              12       0.79726549E+01     0.18125060E+00
              13       0.27360230E+01     0.59770146E-01
              14       0.38515927E+00     0.76268004E-02
              15       0.90588577E-02     0.15368648E-03
              16       0.66641810E-05     0.81420611E-07
              17       0.55453132E-11     0.42632564E-13
================================================================================
Calculating core density ...
================================= Core Density =================================
               Core den box size:   21 x  21 x  21
================================================================================
 ... done
Up spin density kernel initialisation ...... done

Writing density kernel to file "4.69556_GO_manual_4x64graphite.dkn" ... done

>>> Optimising kernel for current NGWFs:

--------------------------- Ensemble-DFT optimisation --------------------------
Running ScaLAPACK on   40 processor(s).

--------------------------------------------------------------------------------
  Iter                              Commutator    Free_energy(A=E-TS)     DeltaA
#    0                          0.000039425403   -3647.92159352968974  -3.65E+03

Step                       =       0.381966011250
Energy                     =   -3647.921567911067
Entropy (-TS)              =      -0.000025618519
Free energy (A=E-TS)       =   -3647.921593529690
Est. 0K Energy 0.5*(E+A)   =   -3647.921580720378
Residual Non-orthogonality =       0.000000000000
Residual N_electrons       =      -0.000000000104

Spin          Integrated_Ne            Fermi_level     Delta_Fermi_level
   1      2560.000000001515         0.068817319307              6.88E-02

                           Spin 1          
     Orb      H-eigenvalues     Occupancies
       1 |    -0.6498510964    1.0000000000 | 
                          ------
    1276 |     0.0321169449    0.9999907332 | 
    1277 |     0.0321181776    0.9999907296 | 
    1278 |     0.0322381851    0.9999903715 | 
    1279 |     0.0322393875    0.9999903679 | 
    1280 |     0.0322953965    0.9999901960 | 
                 - Gap at zero temperature -
    1281 |     0.1056580673    0.0000088650 | 
    1282 |     0.1056589336    0.0000088626 | 
    1283 |     0.1056642882    0.0000088476 | 
    1284 |     0.1056656903    0.0000088437 | 
    1285 |     0.1056690230    0.0000088344 | 
                          ------
    2560 |     0.8982964922    0.0000000000 | 

                       |  Abs_value |  Threshold | Converged
     Delta_Free_energy |   3.65E+03 |   1.00E-06 |        No
     Delta_Energy      |   3.65E+03 |   1.00E-04 |        No
     Delta_Entropy     |   2.56E-05 |   1.00E-04 |       Yes
     Commutator        |   3.94E-05 |   1.00E-05 |        No
     Delta_Fermi_level |   6.88E-02 |   1.00E-03 |        No

  Line search of the free energy minimum:
  Step_type        Step             Free_energy   Predicted_free_energy
.   Initial    0.000000    -3647.92159352968974
.    Trial1    0.381966    -3647.92334251020566
.    Trial2    0.618034    -3647.92382710335824
. Quadratic    0.751113    -3647.92389990831543    -3647.92389948992786

--------------------------------------------------------------------------------
  Iter                              Commutator    Free_energy(A=E-TS)     DeltaA
#    1                          0.000018742343   -3647.92389990831543  -2.31E-03

Step                       =       0.751112554407
Energy                     =   -3647.923873158340
Entropy (-TS)              =      -0.000026749900
Free energy (A=E-TS)       =   -3647.923899908315
Est. 0K Energy 0.5*(E+A)   =   -3647.923886533328
Residual Non-orthogonality =       0.000000000000
Residual N_electrons       =      -0.000000000076

Spin          Integrated_Ne            Fermi_level     Delta_Fermi_level
   1      2560.000000001241         0.060821662841             -8.00E-03

                           Spin 1          
     Orb      H-eigenvalues     Occupancies
       1 |    -0.6609585858    1.0000000000 | 
                          ------
    1276 |     0.0241776703    0.9999905667 | 
    1277 |     0.0241787604    0.9999905635 | 
    1278 |     0.0242467541    0.9999903587 | 
    1279 |     0.0242479651    0.9999903550 | 
    1280 |     0.0242824954    0.9999902493 | 
                 - Gap at zero temperature -
    1281 |     0.0974310446    0.0000095369 | 
    1282 |     0.0974321648    0.0000095336 | 
    1283 |     0.0974363950    0.0000095208 | 
    1284 |     0.0974374290    0.0000095177 | 
    1285 |     0.0974405236    0.0000095084 | 
                          ------
    2560 |     0.8861328106    0.0000000000 | 

                       |  Abs_value |  Threshold | Converged
     Delta_Free_energy |   2.31E-03 |   1.00E-06 |        No
     Delta_Energy      |   2.31E-03 |   1.00E-04 |        No
     Delta_Entropy     |   1.13E-06 |   1.00E-04 |       Yes
     Commutator        |   1.87E-05 |   1.00E-05 |        No
     Delta_Fermi_level |   8.00E-03 |   1.00E-03 |        No

  Line search of the free energy minimum:
  Step_type        Step             Free_energy   Predicted_free_energy
.   Initial    0.000000    -3647.92389990831543
.    Trial1    0.751113    -3647.92304800792544
.    Trial2    0.286899    -3647.92426084289127
. Quadratic    0.265512    -3647.92426319285505    -3647.92426320011191

--------------------------------------------------------------------------------
  Iter                              Commutator    Free_energy(A=E-TS)     DeltaA
#    2                          0.000007838014   -3647.92426319285505  -3.63E-04

Step                       =       0.265512130878
Energy                     =   -3647.924236352073
Entropy (-TS)              =      -0.000026840815
Free energy (A=E-TS)       =   -3647.924263192855
Est. 0K Energy 0.5*(E+A)   =   -3647.924249772464
Residual Non-orthogonality =       0.000000000000
Residual N_electrons       =       0.000000000033

Spin          Integrated_Ne            Fermi_level     Delta_Fermi_level
   1      2559.999999999448         0.060129589965             -6.92E-04

                           Spin 1          
     Orb      H-eigenvalues     Occupancies
       1 |    -0.6619291004    1.0000000000 | 
                          ------
    1276 |     0.0235319257    0.9999904277 | 
    1277 |     0.0235329161    0.9999904247 | 
    1278 |     0.0235968923    0.9999902293 | 
    1279 |     0.0235981231    0.9999902255 | 
    1280 |     0.0236308528    0.9999901240 | 
                 - Gap at zero temperature -
    1281 |     0.0967621395    0.0000094674 | 
    1282 |     0.0967631735    0.0000094643 | 
    1283 |     0.0967673062    0.0000094520 | 
    1284 |     0.0967683731    0.0000094488 | 
    1285 |     0.0967713251    0.0000094400 | 
                          ------
    2560 |     0.8850685956    0.0000000000 | 

                       |  Abs_value |  Threshold | Converged
     Delta_Free_energy |   3.63E-04 |   1.00E-06 |        No
     Delta_Energy      |   3.63E-04 |   1.00E-04 |        No
     Delta_Entropy     |   9.09E-08 |   1.00E-04 |       Yes
     Commutator        |   7.84E-06 |   1.00E-05 |       Yes
     Delta_Fermi_level |   6.92E-04 |   1.00E-03 |       Yes

  Line search of the free energy minimum:
  Step_type        Step             Free_energy   Predicted_free_energy
.   Initial    0.000000    -3647.92426319285505
.    Trial1    0.265512    -3647.92431913609653
.    Trial2    0.546062    -3647.92432602827876
. Quadratic    0.441823    -3647.92432973216182    -3647.92432973200630

--------------------------------------------------------------------------------
  Iter                              Commutator    Free_energy(A=E-TS)     DeltaA
#    3                          0.000004801896   -3647.92432973216182  -6.65E-05

Step                       =       0.441822820081
Energy                     =   -3647.924302785446
Entropy (-TS)              =      -0.000026946719
Free energy (A=E-TS)       =   -3647.924329732162
Est. 0K Energy 0.5*(E+A)   =   -3647.924316258804
Residual Non-orthogonality =       0.000000000000
Residual N_electrons       =       0.000000000004

Spin          Integrated_Ne            Fermi_level     Delta_Fermi_level
   1      2559.999999999933         0.059281316569             -8.48E-04

                           Spin 1          
     Orb      H-eigenvalues     Occupancies
       1 |    -0.6631054842    1.0000000000 | 
                          ------
    1276 |     0.0227106438    0.9999903458 | 
    1277 |     0.0227115456    0.9999903430 | 
    1278 |     0.0227705555    0.9999901614 | 
    1279 |     0.0227718143    0.9999901575 | 
    1280 |     0.0228023015    0.9999900623 | 
                 - Gap at zero temperature -
    1281 |     0.0959146481    0.0000094651 | 
    1282 |     0.0959155997    0.0000094622 | 
    1283 |     0.0959196157    0.0000094502 | 
    1284 |     0.0959207165    0.0000094470 | 
    1285 |     0.0959235229    0.0000094386 | 
                          ------
    2560 |     0.8837900455    0.0000000000 | 

                       |  Abs_value |  Threshold | Converged
     Delta_Free_energy |   6.65E-05 |   1.00E-06 |        No
     Delta_Energy      |   6.64E-05 |   1.00E-04 |       Yes
     Delta_Entropy     |   1.06E-07 |   1.00E-04 |       Yes
     Commutator        |   4.80E-06 |   1.00E-05 |       Yes
     Delta_Fermi_level |   8.48E-04 |   1.00E-03 |       Yes

  Line search of the free energy minimum:
  Step_type        Step             Free_energy   Predicted_free_energy
.   Initial    0.000000    -3647.92432973216182
.    Trial1    0.441823    -3647.92434788536730
.    Trial2    0.655028    -3647.92432216092220
. Quadratic    0.304109    -3647.92435256772796    -3647.92435256836234

--------------------------------------------------------------------------------
  Iter                              Commutator    Free_energy(A=E-TS)     DeltaA
#    4                          0.000002893711   -3647.92435256772796  -2.28E-05

Step                       =       0.304108633721
Energy                     =   -3647.924325581994
Entropy (-TS)              =      -0.000026985736
Free energy (A=E-TS)       =   -3647.924352567728
Est. 0K Energy 0.5*(E+A)   =   -3647.924339074861
Residual Non-orthogonality =       0.000000000000
Residual N_electrons       =       0.000000000002

Spin          Integrated_Ne            Fermi_level     Delta_Fermi_level
   1      2559.999999999969         0.058955999876             -3.25E-04

                           Spin 1          
     Orb      H-eigenvalues     Occupancies
       1 |    -0.6635578279    1.0000000000 | 
[...]
 C   160 -- C   385       -0.09      5.37000
 C   159 -- C   384       -0.09      5.37000
 C   158 -- C   383       -0.09      5.37000
 C   157 -- C   382       -0.09      5.37000
 C   156 -- C   381       -0.09      5.37000
 C   155 -- C   355       -0.09      5.37000
 C   154 -- C   354       -0.09      5.37000
 C   153 -- C   353       -0.09      5.37000
 C   152 -- C   352       -0.09      5.37000
 C   151 -- C   351       -0.09      5.37000
 C   140 -- C   335       -0.09      5.37000
 C   139 -- C   334       -0.09      5.37000
 C   138 -- C   333       -0.09      5.37000
 C   137 -- C   332       -0.09      5.37000
 C   136 -- C   331       -0.09      5.37000
 C   115 -- C   325       -0.09      5.37000
 C   114 -- C   324       -0.09      5.37000
 C   113 -- C   323       -0.09      5.37000
 C   112 -- C   322       -0.09      5.37000
 C   111 -- C   321       -0.09      5.37000
 C   219 -- C   569       -0.09      5.37202
 C   218 -- C   568       -0.09      5.37202
 C   217 -- C   567       -0.09      5.37202
 C   216 -- C   566       -0.09      5.37202
 C   250 -- C   540       -0.09      5.37202
 C   249 -- C   539       -0.09      5.37202
 C   248 -- C   538       -0.09      5.37202
 C   247 -- C   537       -0.09      5.37202
 C   246 -- C   536       -0.09      5.37202
 C   220 -- C   570       -0.09      5.37202
 C   285 -- C   580       -0.09      5.37202
 C   284 -- C   579       -0.09      5.37202
 C   283 -- C   578       -0.09      5.37202
 C   282 -- C   577       -0.09      5.37202
 C   281 -- C   576       -0.09      5.37202
 C   260 -- C   605       -0.09      5.37202
 C   259 -- C   604       -0.09      5.37202
 C   258 -- C   603       -0.09      5.37202
 C   257 -- C   602       -0.09      5.37202
 C   256 -- C   601       -0.09      5.37202
 C   220 -- C   515       -0.09      5.37202
 C   219 -- C   514       -0.09      5.37202
 C   218 -- C   513       -0.09      5.37202
 C   217 -- C   512       -0.09      5.37202
 C   216 -- C   511       -0.09      5.37202
 C   195 -- C   540       -0.09      5.37202
 C   195 -- C   500       -0.09      5.37202
 C   194 -- C   539       -0.09      5.37202
 C   194 -- C   499       -0.09      5.37202
 C   193 -- C   538       -0.09      5.37202
 C   193 -- C   498       -0.09      5.37202
 C   192 -- C   537       -0.09      5.37202
 C   192 -- C   497       -0.09      5.37202
 C   191 -- C   536       -0.09      5.37202
 C   191 -- C   496       -0.09      5.37202
 C   180 -- C   515       -0.09      5.37202
 C   179 -- C   514       -0.09      5.37202
 C   178 -- C   513       -0.09      5.37202
 C   177 -- C   512       -0.09      5.37202
 C   176 -- C   511       -0.09      5.37202
 C    11 -- C   331       -0.09      5.37202
 C   205 -- C   550       -0.09      5.37202
 C   204 -- C   549       -0.09      5.37202
 C   203 -- C   548       -0.09      5.37202
 C   202 -- C   547       -0.09      5.37202
 C   201 -- C   546       -0.09      5.37202
 C    95 -- C   425       -0.09      5.37202
 C    95 -- C   365       -0.09      5.37202
 C    94 -- C   424       -0.09      5.37202
 C    94 -- C   364       -0.09      5.37202
 C    93 -- C   423       -0.09      5.37202
 C    93 -- C   363       -0.09      5.37202
 C    92 -- C   422       -0.09      5.37202
 C    92 -- C   362       -0.09      5.37202
 C    91 -- C   421       -0.09      5.37202
 C    91 -- C   361       -0.09      5.37202
 C    40 -- C   365       -0.09      5.37202
 C    39 -- C   364       -0.09      5.37202
 C    38 -- C   363       -0.09      5.37202
 C    37 -- C   362       -0.09      5.37202
 C    36 -- C   361       -0.09      5.37202
 C    15 -- C   335       -0.09      5.37202
 C    65 -- C   395       -0.09      5.37202
 C    65 -- C   345       -0.09      5.37202
 C    64 -- C   394       -0.09      5.37202
 C    64 -- C   344       -0.09      5.37202
 C    63 -- C   393       -0.09      5.37202
 C    30 -- C   355       -0.09      5.37202
 C    63 -- C   343       -0.09      5.37202
 C    62 -- C   392       -0.09      5.37202
 C    30 -- C   325       -0.09      5.37202
 C    14 -- C   334       -0.09      5.37202
 C    62 -- C   342       -0.09      5.37202
 C    61 -- C   391       -0.09      5.37202
 C    29 -- C   354       -0.09      5.37202
 C    61 -- C   341       -0.09      5.37202
 C    29 -- C   324       -0.09      5.37202
 C   260 -- C   550       -0.09      5.37202
 C   259 -- C   549       -0.09      5.37202
 C    28 -- C   353       -0.09      5.37202
 C   258 -- C   548       -0.09      5.37202
 C   257 -- C   547       -0.09      5.37202
 C   256 -- C   546       -0.09      5.37202
 C    28 -- C   323       -0.09      5.37202
 C    27 -- C   352       -0.09      5.37202
 C    13 -- C   333       -0.09      5.37202
 C    27 -- C   322       -0.09      5.37202
 C   120 -- C   395       -0.09      5.37202
 C    26 -- C   351       -0.09      5.37202
 C   119 -- C   394       -0.09      5.37202
 C   118 -- C   393       -0.09      5.37202
 C    55 -- C   335       -0.09      5.37202
 C   117 -- C   392       -0.09      5.37202
 C    26 -- C   321       -0.09      5.37202
 C   116 -- C   391       -0.09      5.37202
 C    54 -- C   334       -0.09      5.37202
 C    12 -- C   332       -0.09      5.37202
 C    53 -- C   333       -0.09      5.37202
 C   230 -- C   580       -0.09      5.37202
 C   230 -- C   525       -0.09      5.37202
 C   229 -- C   579       -0.09      5.37202
 C   229 -- C   524       -0.09      5.37202
 C   228 -- C   578       -0.09      5.37202
 C    52 -- C   332       -0.09      5.37202
 C   228 -- C   523       -0.09      5.37202
 C   227 -- C   577       -0.09      5.37202
 C   227 -- C   522       -0.09      5.37202
 C   226 -- C   576       -0.09      5.37202
 C   226 -- C   521       -0.09      5.37202
 C    51 -- C   331       -0.09      5.37202
 C    23 -- C   478       -0.09      5.37202
 C    49 -- C   469       -0.09      5.37202
 C    48 -- C   468       -0.09      5.37202
 C    47 -- C   467       -0.09      5.37202
 C    22 -- C   477       -0.09      5.37202
 C    46 -- C   466       -0.09      5.37202
 C    21 -- C   476       -0.09      5.37202
 C    85 -- C   355       -0.09      5.37202
 C    84 -- C   354       -0.09      5.37202
 C    83 -- C   353       -0.09      5.37202
 C    82 -- C   352       -0.09      5.37202
 C    81 -- C   351       -0.09      5.37202
 C    55 -- C   385       -0.09      5.37202
 C    54 -- C   384       -0.09      5.37202
 C    25 -- C   480       -0.09      5.37202
 C    53 -- C   383       -0.09      5.37202
 C    52 -- C   382       -0.09      5.37202
 C    51 -- C   381       -0.09      5.37202
 C    24 -- C   479       -0.09      5.37202
 C    50 -- C   470       -0.09      5.37202
 C    24 -- C   449       -0.09      5.37202
 C     6 -- C   416       -0.09      5.37202
 C    23 -- C   448       -0.09      5.37202
 C    22 -- C   447       -0.09      5.37202
 C    10 -- C   470       -0.09      5.37202
 C     5 -- C   450       -0.09      5.37202
 C    21 -- C   446       -0.09      5.37202
 C    10 -- C   420       -0.09      5.37202
 C     9 -- C   469       -0.09      5.37202
 C     9 -- C   419       -0.09      5.37202
 C     8 -- C   468       -0.09      5.37202
 C     4 -- C   449       -0.09      5.37202
 C   150 -- C   440       -0.09      5.37202
 C   149 -- C   439       -0.09      5.37202
 C   148 -- C   438       -0.09      5.37202
 C   147 -- C   437       -0.09      5.37202
 C     8 -- C   418       -0.09      5.37202
 C   146 -- C   436       -0.09      5.37202
 C     2 -- C   447       -0.09      5.37202
 C   135 -- C   460       -0.09      5.37202
 C     7 -- C   467       -0.09      5.37202
 C   134 -- C   459       -0.09      5.37202
 C   133 -- C   458       -0.09      5.37202
 C   132 -- C   457       -0.09      5.37202
 C   131 -- C   456       -0.09      5.37202
 C     7 -- C   417       -0.09      5.37202
 C     1 -- C   446       -0.09      5.37202
 C     6 -- C   466       -0.09      5.37202
 C    25 -- C   450       -0.09      5.37202
 C     3 -- C   448       -0.09      5.37202
 C   106 -- C   436       -0.09      5.37202
 C   106 -- C   376       -0.09      5.37202
 C    80 -- C   410       -0.09      5.37202
 C    79 -- C   409       -0.09      5.37202
 C    78 -- C   408       -0.09      5.37202
 C    77 -- C   407       -0.09      5.37202
 C    76 -- C   406       -0.09      5.37202
 C   135 -- C   410       -0.09      5.37202
 C   134 -- C   409       -0.09      5.37202
 C   133 -- C   408       -0.09      5.37202
 C   132 -- C   407       -0.09      5.37202
 C   131 -- C   406       -0.09      5.37202
 C   110 -- C   440       -0.09      5.37202
 C   110 -- C   380       -0.09      5.37202
 C   109 -- C   439       -0.09      5.37202
 C   109 -- C   379       -0.09      5.37202
 C   108 -- C   438       -0.09      5.37202
 C   108 -- C   378       -0.09      5.37202
 C   107 -- C   437       -0.09      5.37202
 C   107 -- C   377       -0.09      5.37202
 C   215 -- C   635       -0.09      5.38000
 C   214 -- C   634       -0.09      5.38000
 C   213 -- C   633       -0.09      5.38000
 C   212 -- C   632       -0.09      5.38000
 C   211 -- C   631       -0.09      5.38000
 C   190 -- C   620       -0.09      5.38000
 C   189 -- C   619       -0.09      5.38000
 C   188 -- C   618       -0.09      5.38000
 C   187 -- C   617       -0.09      5.38000
 C   186 -- C   616       -0.09      5.38000
 C   175 -- C   595       -0.09      5.38000
 C   174 -- C   594       -0.09      5.38000
 C   173 -- C   593       -0.09      5.38000
 C   172 -- C   592       -0.09      5.38000
 C   171 -- C   591       -0.09      5.38000
 C   245 -- C   640       -0.09      5.38000
 C   244 -- C   639       -0.09      5.38000
 C   243 -- C   638       -0.09      5.38000
 C   242 -- C   637       -0.09      5.38000
 C   241 -- C   636       -0.09      5.38000
==================================================


=================== Orbital energy and occupancy information ===================

      Total number of orbitals:    2560
        Occupancy sum (kernel):    1279.999999999
   Occupancy sum (eigenvalues):    1279.999999999
                 HOMO-LUMO gap:       0.071165896 Eh
                 Mid-gap level:       0.135600846 Eh

                        Orbital | Energy (Eh) | Occupancy
                            1    -0.580710847   1.0000000
                        .......   ...........   .........
                         1271     0.098718341   0.9999898
                         1272     0.098722422   0.9999898
                         1273     0.099185726   0.9999882
                         1274     0.099189823   0.9999882
                         1275     0.099317309   0.9999877
                         1276     0.099320173   0.9999877
                         1277     0.099548904   0.9999868
                         1278     0.099785916   0.9999857
                         1279     0.099788770   0.9999857
                         1280     0.100017899   0.9999846
                        ....... -- gap at 0K -- .........
                         1281     0.171183794   0.0000112
                         1282     0.171186199   0.0000112
                         1283     0.171216173   0.0000111
                         1284     0.171218603   0.0000111
                         1285     0.171237694   0.0000110
                         1286     0.171431753   0.0000104
                         1287     0.171434172   0.0000104
                         1288     0.171463386   0.0000103
                         1289     0.171465782   0.0000103
                         1290     0.171484437   0.0000102
                        .......   ...........   .........
                         2560     1.026505240   0.0000000

================================================================================

===================== Writing canonical molecular orbitals =====================
| Orbital  Energy (eV)  Norm     |
| HOMO      2.72162551  1.000000 | Writing "4.69556_GO_manual_4x64graphite_HOMO.cube" ... done
Writing "4.69556_GO_manual_4x64graphite_HOMO.dx" ... done
| LUMO      4.65814806  1.000000 | Writing "4.69556_GO_manual_4x64graphite_LUMO.cube" ... done
Writing "4.69556_GO_manual_4x64graphite_LUMO.dx" ... done
================================================================================
 
===================== Density of States (DOS) calculation ======================
Writing "4.69556_GO_manual_4x64graphite_DOS.txt" ...  done
================================================================================
 
Writing bands to file "4.69556_GO_manual_4x64graphite.val_bands" ... done
 
================ Projected Density of States (pDOS) calculation ================
 
Constructing AM resolved functions  ...... done
Writing NGWF plot files in formats: CUBE DX ...  done
 
Performing overlap integrals ...  done
 
Computing pDOS weights ...  done
 
All bands spilling parameter =   2.72 %
Occupancy-weighted spilling parameter =   0.98 %
 
 => Outputting data for OptaDOS <=
 
Writing pDOS weights to file "4.69556_GO_manual_4x64graphite.val_pdos_bin" ... done
 
Writing band gradients to file "4.69556_GO_manual_4x64graphite.val_dome_bin" ... done
 
Writing Castep output cell file to "4.69556_GO_manual_4x64graphite-out.cell" ... done
 
 => Computing Gaussian smeared pDOS <= 
Writing "4.69556_GO_manual_4x64graphite_PDOS.txt" ...  done
 
 => Computing Occupancy-weighted Gaussian smeared pDOS <= 
Writing "4.69556_GO_manual_4x64graphite_occ_PDOS.txt" ...  done
  => Band centres: 
 S band centre of group 1:  -13.685672 eV
 P band centre of group 1:   -6.564750 eV
  Band centres done. <=
  => Integrated number of electrons in each AM band: 
 S num electrons of group 1:  574.027824
 P num electrons of group 1: 1960.896624
  Integrated number of electrons done. <=
================================================================================

------------------------------ TIMING INFORMATION ------------------------------
AVERAGE TIME:    2462.134s on     40 node(s)                                    
TOTAL TIME:      2462.134s on     40 node(s)                                    
================= AVERAGE TIMINGS FROM ALL NODES (CUMULATIVE) ==================
|| TAG                                    #calls    cpu time   %total  Gflops ||
|| work_imbalance                       :     1        0.00s   0.000%  ------ ||
|| paw_tcore_hartree_on_grid            :     1        0.00s   0.000%  ------ ||
|| paw_tcore_density                    :     1        0.01s   0.000%  ------ ||
|| paw_sphere_density_on_grid           :     1        0.01s   0.001%  ------ ||
|| sparse_set_to_garbage                :   135        0.02s   0.001%  ------ ||
|| paw_dij_hartree                      :   266        0.03s   0.001%  ------ ||
|| basis_extract_function_from_box      :  1536        0.07s   0.003%  ------ ||
|| pseudo_make_structure_factor         :     1        0.07s   0.003%  ------ ||
|| paw_species_calc_proj_prec_mat       :     1        0.12s   0.005%  ------ ||
|| paw_dataset_init                     :     1        0.16s   0.006%  ------ ||
|| density_init_guess_real              :     1        0.20s   0.008%  ------ ||
|| ngwfs_initialise_from_radial         :     2        0.67s   0.027%  ------ ||
|| restart_kernel_write                 :    13        0.80s   0.033%  ------ ||
|| sparse_init                          :     1        0.92s   0.037%  ------ ||
|| dense_normal_eigensolve              :     1        1.09s   0.044%  ------ ||
|| hartree_on_grid                      :   201        1.53s   0.062%  ------ ||
|| projectors_init_fftbox_recip         :   121        2.33s   0.095%  ------ ||
|| fourier_apply_box_pair               :  2272        3.76s   0.153% 560.908 ||
|| basis_copy_function_to_box           : 19136        4.14s   0.168%  ------ ||
|| augmentation_screen_dij              :   206        4.40s   0.179%  ------ ||
|| ewald_calculate_energy               :     1        5.53s   0.225%  ------ ||
|| sparse_embed_hotelling_invert_embed  :    23        6.59s   0.268%  ------ ||
|| sw_init                              :     1        6.73s   0.274%  ------ ||
|| ngwf_gradient_coeffs                 :    12        8.37s   0.340%  ------ ||
|| sparse_trace                         :  2404        9.56s   0.388%  ------ ||
|| cell_grid_deposit_box_real           : 25904       14.43s   0.586%  ------ ||
|| fourier_apply_cell_backward          :  6202       14.45s   0.587%  72.151 ||
|| fourier_apply_cell_forward           :  5801       16.11s   0.654%  60.536 ||
|| cell_grid_extract_box_real           :  8044       16.55s   0.672%  ------ ||
|| paw_dij_xc                           :   266       24.66s   1.001%  ------ ||
|| density_fftbox_deposit_to_cell       : 12864       27.98s   1.136%  ------ ||
|| aug_nonlocal_mat                     :   254       29.76s   1.209%  ------ ||
|| function_ops_brappd_ketppd           :    48       35.13s   1.427%  ------ ||
|| augmentation_density_on_grid         :   201       35.29s   1.433%  ------ ||
|| projectors_func_ovlp_box             :    24       36.86s   1.497%  ------ ||
|| hamiltonian_energy_components        :     3       37.41s   1.519%  ------ ||
|| eigenstates_pdos                     :     1       52.64s   2.138%  ------ ||
|| integrals_kinetic                    :    23       54.04s   2.195%  ------ ||
|| eigenstates_calculate                :     1       57.51s   2.336%  ------ ||
|| nlxc_vdw_energy                      :   400       65.58s   2.663%  ------ ||
|| xc_energy_potential                  :   200       68.92s   2.799%  ------ ||
|| dense_eigensolve                     :   174       81.28s   3.301%  ------ ||
|| potential_apply_to_ngwf_batch        :   248       94.70s   3.846%  ------ ||
|| sparse_product                       :  2460       96.22s   3.908%  ------ ||
|| properties_calculate                 :     1      109.40s   4.443%  ------ ||
|| basis_dot_function_with_box          : 4.127M     113.02s   4.590%  ------ ||
|| restart_ngwfs_tightbox_output        :    11      121.66s   4.941%  ------ ||
|| projectors_gradient_batch            :    48      147.05s   5.973%  ------ ||
|| integrals_locpot_mat_els_batch       :   248      148.01s   6.012%  ------ ||
|| fourier_apply_box                    : 60560      187.35s   7.609% 977.975 ||
|| edft_diag_ngwf_ham                   :   173      187.42s   7.612%  ------ ||
|| projectors_grad_precond_batch        :    48      201.09s   8.167%  ------ ||
|| integrals_locpot_dbl_grid            :    62      243.54s   9.891%  ------ ||
|| density_fftbox_interpolate_multiply  : 12864      249.43s  10.131%  ------ ||
|| density_batch_interp_deposit         :   804      305.15s  12.394%  ------ ||
|| basis_add_function_to_box            : 11.86M     312.31s  12.684%  ------ ||
|| edft_apply_smearing_operator         :   173      368.01s  14.947%  ------ ||
|| ngwf_gradient_build_batch            :    48      384.39s  15.612%  ------ ||
|| density_batch_row_sums               :   804      423.53s  17.202%  ------ ||
|| ngwf_gradient_batch                  :    48      511.64s  20.780%  ------ ||
|| ngwf_gradient_lnv                    :    12      530.90s  21.563%  ------ ||
|| density_on_dbl_grid                  :   201      740.52s  30.076%  ------ ||
|| hamiltonian_lhxc_calculate           :   196      826.96s  33.587%  ------ ||
|| edft_calculate                       :    12     1437.58s  58.387%  ------ ||
|| ngwf_cg_optimise                     :     1     2326.79s  94.503%  ------ ||
|| total_time                           :     1     2462.13s 100.000%  ------ ||
================================================================================
Overhead of generating timer report: 
- 0 ms averaging over threads,
- 5 ms ensuring consistency across MPI ranks,
- 0 ms printing in order.

Job completed: 05-03-2020 14:59 (-0000)

