 +---------------------------------------------------------------+
 |                                                               |
 |        ####### #     # ####### ####### ####### ######         |
 |        #     # ##    # #          #    #       #     #        |
 |        #     # # #   # #          #    #       #     #        |
 |        #     # #  #  # #####      #    #####   ######         |
 |        #     # #   # # #          #    #       #              |
 |        #     # #    ## #          #    #       #              |
 |        ####### #     # #######    #    ####### #              |
 |                                                               |
 |        Linear-Scaling Ab Initio Total Energy Program          |
 |                                                               |
 |          Release for academic collaborators of ODG            |
 |                                             Version 5.3.2.12  |
 |                                                               |
 +---------------------------------------------------------------+
 |                                                               |
 |  Authors:                                                     |
 |  Jacek Dziedzic, Peter D. Haynes, Nicholas D. M. Hine,        |
 |  Arash. A. Mostofi, Mike C. Payne and Chris-Kriton Skylaris   |
 |                                                               |
 |  Contributors:                                                |
 |  J. Aarons, L. Andrinopoulos, P. W. Avraam, R. A. Bell,       |
 |  A. Bhandari, G. A. Bramley, R. J. Charlton, S. J. Clark,     |
 |  R. J. Clements, G. C. Constantinescu, F. Corsetti,           |
 |  N. Corsini, O. Dieguez, S. M. M. Dubois, K. K. B. Duff,      |
 |  J. M. Escartin, A. Greco, H. Helal, Q. O. Hill, L. P. Lee,   |
 |  J.-H. Li, E. B. Linscott, G. Moynihan, D. D. O`Regan,        |
 |  O. K. Okan, M. J. S. Phipps, C. J. Pickard,                  |
 |  J. C. A. Prentice, M. I. J. Probert, L. E. Ratcliff,         |
 |  M. Robinson, A. Ruiz Serrano, J. S. Spencer, E. W. Tait,     |
 |  G. Teobaldi, D. Turban, V. Vitale, K. A. Wilkinson,          |
 |  C. Weber, J. C. Womack, N. Yeung and T. J. Zuehlsdorff       |
 |                                                               |
 |                                   Copyright (c) 2004-2020     |
 |                                                               |
 |  Please cite:                                                 |
 |  "Introducing ONETEP: Linear-scaling density functional       |
 |   simulations on parallel computers".                         |
 |   C.-K. Skylaris, P. D. Haynes, A. A. Mostofi, M. C. Payne.   |
 |   J. Chem. Phys. 122 084119 (2005).                           |
 |                                                               |
 |          in all publications arising from your use of ONETEP. |
 |                                                               |
 +---------------------------------------------------------------+
 |                                                               |
 |   ONETEP is based on developments described in the following  |
 |   publications:                                               |
 |                                                               |
 |  "Nonorthogonal generalized Wannier function pseudopotential  |
 |   plane-wave method".                                         |
 |   C.-K. Skylaris, A. A. Mostofi, P. D. Haynes, O. Dieguez,    |
 |   M. C. Payne.                                                |
 |   Phys. Rev. B 66 035119 (2002).                              |
 |                                                               |
 |  "Preconditioned iterative minimization for linear-scaling    |
 |   electronic structure calculations".                         |
 |   A. A. Mostofi, P. D. Haynes, C.-K. Skylaris, M. C. Payne.   |
 |   J. Chem. Phys. 119(17), pp.8842-8848 (2003).                |
 |                                                               |
 |  "Total-energy calculations on a real space grid with         |
 |   localized functions and a plane-wave basis".                |
 |   A. A. Mostofi, C.-K. Skylaris, P. D. Haynes, M. C. Payne.   |
 |   Comput. Phys. Commun. 147, pp.788-802 (2002).               |
 |                                                               |
 |  "Accurate kinetic energy evaluation in electronic structure  |
 |   calculations with localized functions on real space grids"  |
 |   C.-K. Skylaris, A. A. Mostofi, P. D. Haynes, C. J. Pickard, |
 |   M. C. Payne.                                                |
 |   Comput. Phys. Commun. 140, pp.315-322 (2001).               |
 |                                                               |
 |  "Accurate ionic forces and geometry optimization in linear-  |
 |   scaling density-functional theory with local orbitals"      |
 |   N. D. M. Hine, M. Robinson, P. D. Haynes, C.-K. Skylaris,   |
 |   M. C. Payne, and A. A. Mostofi.                             |
 |   Phys. Rev. B 83 195102 (2011).                              |
 |                                                               |
 +---------------------------------------------------------------+

Job started: 11-08-2020 12:14 (+0100)
 
Reading parameters from file "4/592nano.dat" ...... done

If your calculation crashes here, before "Checking processes and threads..."
is displayed, then your stack size is insufficient.
If so, use "ulimit -s unlimited" at runtime.
You can disable this check with "check_stack_size F".

Checking processes and threads...
   Determining the default number of threads...
      No default threads set at compilation time: defaulting to 1.
      OpenMP library call suggests 4 threads.
      Hybrid MPI-OpenMP compilation detected.
      Number of MPI processes > 1.
      OMP_NUM_THREADS environment variable present and
      its value matches the one obtained from the OpenMP library call.
      Using this value as default.
      Default threads: 4
      Default applies to threads_max and threads_num_fftboxes.
      Settings in the input file override this default.
   ... done

   Running with 160 MPI processes.
   There are 10 MPI processes running on the same node as the root process.
   Each MPI process is using: 
               1 threads for simulation cell FFTs.
               1 threads for parallel FFT box operations.
               4 threads for loops over batched FFT box operations.
               4 threads in other parallel regions.
... done

Basic input checks...
Resetting ngwf_cg_rotate to TRUE for EDFT calculations
... done

Reading geometry and species blocks from file "4/592nano.dat" ...    
  Number of PPD points along a3 set to 1.  This is 
  the default value, it may have been provided also in the input file.
... done
 Writing xyz coordinates to file "4/592nano.xyz" ... done


--------------------------------------------------------------------------------
---------------------------------- INPUT FILE ----------------------------------
--------------------------------------------------------------------------------

task : singlepoint                                                              
do_properties : true                                                            
ddec_classical_hirshfeld T                                                      
dx_format T                                                                     
edft T                                                                          
edft_spin_fix 3                                                                 
output_detail VERBOSE                                                           
write_xyz T                                                                     
dispersion 4                                                                    
xc_functional PBE                                                               
cutoff_energy 830 eV                                                            
paw T                                                                           
geom_disp_tol 0.015 bohr                                                        
geom_energy_tol 1.5E-6 hartree                                                  
geom_force_tol 0.003 "ha/bohr"                                                  
EDFT_MAXIT 30                                                                   
pdos_max_l = 2                                                                  
dos_smear  0.1 eV                                                               
popn_calculate T                                                                
PDOS_PSEUDOATOMIC T                                                             
PDOS_REDUCE_SWS F                                                               
PDOS_CONSTRUCT_BASIS F                                                          
PDOS_LOWDIN T                                                                   
PDOS_ORTH_ATOM_BLOCKS F                                                         
PDOS_LCAO_OPTIMIZE F                                                            
pdos_optados_output T                                                           
homo_plot 0                                                                     
lumo_plot 0                                                                     
homo_dens_plot -1                                                               
lumo_dens_plot -1                                                               
%BLOCK SPECIES                                                                  
C C 6 4 9.0                                                                     
H H 1 1 9.0                                                                     
Li Li 3 5 9.0                                                                   
%ENDBLOCK SPECIES                                                               
%BLOCK SPECIES_POT                                                              
C "~/pp/paw/c_pbe_abinit.paw"                                                   
H "~/pp/paw/h_pbe_abinit.paw"                                                   
Li "~/pp/paw/li_pbe_abinit.paw"                                                 
%ENDBLOCK SPECIES_POT                                                           
%BLOCK SPECIES_ATOMIC_SET                                                       
C "SOLVE conf=2s2 2p2"                                                          
H "SOLVE conf=1s1"                                                              
Li "SOLVE conf=1s2 2s1 2p0"                                                     
%ENDBLOCK SPECIES_ATOMIC_SET                                                    
%BLOCK SPECIES_LDOS_GROUPS                                                      
C                                                                               
H                                                                               
Li                                                                              
%ENDBLOCK SPECIES_LDOS_GROUPS                                                   
%BLOCK LATTICE_CART                                                             
94.486315650000      0.000000000000       0.000000000000                        
0.000000000000       94.486315650000      0.000000000000                        
0.000000000000       0.000000000000       94.486315650000                       
%ENDBLOCK LATTICE_CART                                                          
%BLOCK POSITIONS_ABS                                                            
C 45.491729 50.686300 30.691402                                                 
C 45.451911 50.625231 36.814099                                                 
C 46.834816 53.016136 30.686305                                                 
C 48.137684 50.625012 36.807881                                                 
C 49.522238 48.357742 30.690758                                                 
C 49.484369 48.301142 36.802225                                                 
C 50.864621 50.688326 30.671466                                                 
C 52.172294 48.301580 36.802487                                                 
C 45.493364 55.346758 30.691330                                                 
C 45.446892 55.274633 36.819599                                                 
C 46.837205 57.677433 30.688632                                                 
C 48.132887 55.275720 36.819494                                                 
C 49.521958 53.017367 30.673083                                                 
C 49.477354 52.950938 36.816342                                                 
C 50.864785 55.351304 30.641996                                                 
C 52.165524 52.950571 36.829784                                                 
C 45.410118 50.498574 42.975503                                                 
C 45.359654 50.394740 49.118393                                                 
C 46.751655 52.824622 42.968938                                                 
C 48.049074 50.397250 49.123935                                                 
C 49.438050 48.171261 42.962321                                                 
C 49.392567 48.070998 49.122296                                                 
C 50.780651 50.496563 42.965313                                                 
C 52.083684 48.074675 49.119460                                                 
C 45.408689 55.150670 42.969268                                                 
C 45.363613 55.050450 49.124841                                                 
C 46.751944 57.477195 42.971648                                                 
C 48.052322 55.052834 49.126869                                                 
C 49.437197 52.822977 42.969716                                                 
C 49.394986 52.724583 49.124445                                                 
C 50.779367 55.149851 42.984386                                                 
C 52.085246 52.726015 49.127184                                                 
C 57.593703 48.366338 30.683005                                                 
C 57.546602 48.298022 36.825885                                                 
C 58.934985 50.693812 30.655046                                                 
C 60.263159 48.300814 36.841990                                                 
C 57.504203 48.168460 42.955539                                                 
C 57.465561 48.073678 49.099158                                                 
C 58.844517 50.492295 42.965876                                                 
C 60.184946 48.077084 49.068008                                                 
C 53.554406 50.691145 30.655123                                                 
C 53.511146 50.627225 36.821353                                                 
C 54.895896 53.021371 30.599678                                                 
C 56.204893 50.625432 36.836466                                                 
C 53.467574 50.495448 42.969158                                                 
C 53.427963 50.400318 49.119890                                                 
C 54.809759 52.821762 42.989423                                                 
C 56.126386 50.401643 49.115272                                                 
C 57.596853 43.714382 30.711846                                                 
C 57.550454 43.642643 36.817527                                                 
C 58.933619 46.033112 30.705688                                                 
C 60.267082 43.659872 36.837370                                                 
C 57.503526 43.523366 42.944742                                                 
C 57.462984 43.413589 49.088762                                                 
C 58.842541 45.837606 42.944758                                                 
C 60.183244 43.430098 49.057839                                                 
C 53.556759 46.032946 30.694200                                                 
C 53.517012 45.974399 36.801400                                                 
C 54.898397 48.362488 30.675010                                                 
C 56.210397 45.975018 36.809723                                                 
C 53.469133 45.846329 42.955652                                                 
C 53.428138 45.745116 49.112182                                                 
C 54.810361 48.168333 42.960707                                                 
C 56.124747 45.747472 49.103375                                                 
C 57.589098 57.664535 30.272953                                                 
C 57.524587 57.603696 37.126540                                                 
C 58.924687 60.033116 29.999245                                                 
C 60.254007 57.576295 37.236334                                                 
C 57.502121 57.461345 43.078375                                                 
C 57.462707 57.390993 49.150891                                                 
C 58.846523 59.820379 43.138326                                                 
C 60.182599 57.375287 49.128258                                                 
C 45.485504 64.667614 30.737708                                                 
C 45.446855 64.581931 36.856552                                                 
C 46.857401 67.012114 30.780961                                                 
C 48.120657 64.587635 36.869618                                                 
C 49.523366 62.343579 30.680394                                                 
C 49.470796 62.263439 36.867282                                                 
C 50.884649 64.697274 30.695551                                                 
C 52.154158 62.265079 36.939821                                                 
C 45.400554 64.459379 42.972378                                                 
C 45.379855 64.366999 49.119866                                                 
C 46.774123 66.803780 42.970735                                                 
C 48.057249 64.367693 49.136929                                                 
C 49.436351 62.129610 42.998248                                                 
C 49.405310 62.041761 49.142694                                                 
C 50.797273 64.478786 43.008547                                                 
C 52.090966 62.039972 49.157850                                                 
C 53.553454 60.014108 30.486296                                                 
C 53.490730 59.940021 36.970135                                                 
C 54.904690 62.381783 30.409277                                                 
C 56.179277 59.931908 37.140847                                                 
C 53.468533 59.798372 43.047083                                                 
C 53.435033 59.714978 49.157724                                                 
C 54.823542 62.150696 43.083315                                                 
C 56.124718 59.709023 49.167312                                                 
C 57.591353 53.018286 30.579164                                                 
C 57.540540 52.951770 36.896702                                                 
C 58.932958 55.349009 30.432019                                                 
C 60.261041 52.944734 36.936196                                                 
C 57.503586 52.817549 42.995622                                                 
C 57.465723 52.730446 49.118977                                                 
C 58.842422 55.146048 43.038521                                                 
C 60.184775 52.727482 49.090617                                                 
C 45.492165 60.006885 30.701900                                                 
C 45.444521 59.927493 36.826708                                                 
C 46.839452 62.342745 30.712359                                                 
C 48.127987 59.930274 36.836113                                                 
C 49.524522 57.678625 30.656367                                                 
C 49.472127 57.604400 36.836359                                                 
C 50.869950 60.016564 30.619978                                                 
C 52.157854 57.604275 36.883877                                                 
C 45.405661 59.804484 42.970773                                                 
C 45.370153 59.707346 49.127665                                                 
C 46.752476 62.135141 42.978893                                                 
C 48.054718 59.708518 49.134658                                                 
C 49.436611 57.474727 42.986193                                                 
C 49.398274 57.380606 49.132248                                                 
C 50.783533 59.807399 43.008439                                                 
C 52.087993 57.380539 49.143588                                                 
C 53.553460 55.349877 30.574048                                                 
C 53.502550 55.278841 36.879155                                                 
C 54.892829 57.686178 30.439899                                                 
C 56.193406 55.270241 36.945893                                                 
C 53.467882 55.144724 43.004138                                                 
C 53.429687 55.056709 49.136650                                                 
C 54.812747 57.475420 43.045155                                                 
C 56.125552 55.056539 49.139674                                                 
H 27.306429 41.367767 30.767673                                                 
H 28.283474 39.577801 36.732717                                                 
H 27.289248 41.146718 42.109610                                                 
H 28.173265 39.345670 49.824417                                                 
H 41.798415 30.312424 29.582116                                                 
C 42.831687 32.082252 29.857641                                                 
H 44.513271 30.253869 37.614642                                                 
H 41.733401 30.094324 42.922915                                                 
C 42.777062 31.878827 42.994637                                                 
H 44.395743 29.986300 48.940485                                                 
H 29.626759 37.308794 30.744898                                                 
C 30.654499 39.104027 30.714795                                                 
H 32.325403 37.245858 36.755385                                                 
H 33.666659 34.968146 30.689749                                                 
C 34.709321 36.756198 30.655779                                                 
H 29.592515 37.115493 42.636597                                                 
C 30.629022 38.905100 42.601227                                                 
H 32.205902 36.981132 49.168939                                                 
H 33.629673 34.775139 42.847443                                                 
C 34.674416 36.562363 42.847017                                                 
H 37.709018 32.618746 30.303927                                                 
C 38.747904 34.409576 30.339784                                                 
H 40.435455 32.588675 37.522937                                                 
H 37.690348 32.434901 42.886738                                                 
C 38.725857 34.226634 42.938071                                                 
H 40.355668 32.311373 48.935054                                                 
H 46.467815 30.284311 29.836738                                                 
H 46.407358 30.106065 42.961000                                                 
H 25.943456 48.286521 36.833117                                                 
C 28.014092 48.289340 36.798287                                                 
H 25.826638 48.082818 49.415676                                                 
C 27.897204 48.089108 49.391214                                                 
H 25.938813 43.620561 36.771541                                                 
H 27.323905 46.022546 30.792178                                                 
C 28.008128 43.607077 36.725466                                                 
H 25.862878 43.396875 50.037035                                                 
H 27.279103 45.840100 42.228393                                                 
C 27.917472 43.389002 49.804015                                                 
H 25.931759 57.634222 36.889486                                                 
H 27.326064 60.054116 30.838592                                                 
C 28.000917 57.649449 36.875993                                                 
H 25.839968 57.442871 48.987967                                                 
H 27.252223 59.847062 42.920796                                                 
C 27.908494 57.449636 49.023090                                                 
H 25.941394 52.968135 36.874969                                                 
H 27.329661 55.389054 30.821902                                                 
C 28.012108 52.967414 36.858536                                                 
H 25.836863 52.771156 49.038797                                                 
H 27.256379 55.182861 42.952580                                                 
C 27.905858 52.762898 49.085606                                                 
C 29.374000 41.341959 30.722240                                                 
C 29.301267 41.376228 36.702222                                                 
C 30.671124 43.729495 30.697690                                                 
C 32.016863 41.294520 36.698308                                                 
C 33.369993 39.022202 30.684912                                                 
C 33.360203 39.036475 36.737631                                                 
C 34.720896 41.383426 30.666116                                                 
C 36.038550 38.966454 36.793701                                                 
C 29.391379 46.023079 30.726351                                                 
C 29.300180 45.991269 36.738276                                                 
C 30.675773 48.377153 30.703221                                                 
C 32.017587 45.971254 36.730231                                                 
C 33.390809 43.704486 30.676317                                                 
C 33.358215 43.654717 36.710711                                                 
C 34.731505 46.038768 30.672908                                                 
C 36.048320 43.642538 36.750428                                                 
C 29.344102 41.135445 42.330052                                                 
C 29.210177 41.129964 49.712713                                                 
C 30.637780 43.537136 42.317691                                                 
C 31.923742 41.028241 49.444672                                                 
C 33.334324 38.826826 42.749189                                                 
C 33.255393 38.764642 49.208910                                                 
C 34.674583 41.189055 42.746564                                                 
C 35.933540 38.705147 49.094866                                                 
C 29.336920 45.838787 42.435565                                                 
C 29.191752 45.788923 49.573073                                                 
C 30.608483 48.188615 42.719463                                                 
C 31.921680 45.749591 49.417882                                                 
C 33.347457 43.511551 42.618725                                                 
C 33.262827 43.413759 49.372496                                                 
C 34.671300 45.855125 42.771089                                                 
C 35.952918 43.401006 49.188063                                                 
C 41.438188 39.045259 30.561650                                                 
C 41.428635 38.999625 36.965047                                                 
C 42.797315 41.370991 30.644567                                                 
C 44.114400 39.003348 36.997692                                                 
C 41.380434 38.861183 42.994518                                                 
C 41.329742 38.747578 49.076345                                                 
C 42.726395 41.193248 42.992117                                                 
C 44.015508 38.750583 49.090730                                                 
C 37.413193 41.370279 30.653430                                                 
C 37.391924 41.320386 36.793207                                                 
C 38.765160 43.702354 30.672990                                                 
C 40.079270 41.317469 36.850926                                                 
C 37.359541 41.186909 42.863067                                                 
C 37.287007 41.072531 49.118591                                                 
C 38.699437 43.522662 42.894523                                                 
C 39.975711 41.072072 49.089377                                                 
C 41.388752 34.380204 30.151748                                                 
C 41.463067 34.371840 37.312398                                                 
C 42.789575 36.719187 30.377296                                                 
C 44.111090 34.350031 37.406306                                                 
C 41.357762 34.191331 43.011688                                                 
C 41.377613 34.109301 49.005225                                                 
C 42.730177 36.536038 43.042717                                                 
C 44.008220 34.080684 49.045002                                                 
C 37.381775 36.690174 30.552238                                                 
C 37.410083 36.692194 36.903226                                                 
C 38.752359 39.041576 30.589432                                                 
C 40.060542 36.648681 37.041757                                                 
C 37.342045 36.508848 42.906634                                                 
C 37.311991 36.436661 49.008053                                                 
C 38.697197 38.861391 42.925891                                                 
C 39.972025 36.391786 49.033379                                                 
C 41.460299 48.359285 30.691427                                                 
C 41.423936 48.298579 36.813903                                                 
C 42.803913 50.687220 30.688375                                                 
C 44.110546 48.300254 36.810313                                                 
C 41.384467 48.174555 42.976990                                                 
C 41.326268 48.067754 49.097538                                                 
C 42.725178 50.500017 42.985664                                                 
C 44.014787 48.067557 49.109316                                                 
C 29.398116 55.384500 30.756400                                                 
C 29.295735 55.262817 36.862791                                                 
C 30.682509 57.677341 30.731996                                                 
C 32.013823 55.278671 36.849117                                                 
C 33.397486 53.027988 30.690101                                                 
C 33.353137 52.948097 36.839052                                                 
C 34.737192 55.355198 30.688266                                                 
C 36.047157 52.949208 36.838685                                                 
C 29.324670 55.182102 42.963184                                                 
C 29.196352 55.056670 49.058606                                                 
C 30.608534 57.474882 42.968515                                                 
C 31.917154 55.069010 49.091033                                                 
C 33.320603 52.833030 42.950353                                                 
C 33.253707 52.732257 49.113901                                                 
C 34.659600 55.157033 42.980267                                                 
C 35.949757 52.727787 49.108066                                                 
C 37.430692 50.692267 30.675634                                                 
C 37.391470 50.622964 36.827646                                                 
C 38.773308 53.019638 30.679316                                                 
C 40.078716 50.622694 36.826321                                                 
C 37.354547 50.502589 42.957888                                                 
C 37.293437 50.398300 49.106740                                                 
C 38.694757 52.828197 42.986408                                                 
C 39.984241 50.395960 49.100163                                                 
C 41.454865 43.700111 30.681283                                                 
C 41.426194 43.649534 36.827767                                                 
C 42.802350 46.028902 30.695474                                                 
C 44.111015 43.651792 36.843080                                                 
C 41.384084 43.520381 42.957111                                                 
C 41.321855 43.408817 49.096257                                                 
C 42.726022 45.847774 42.975278                                                 
C 44.011699 43.410930 49.102276                                                 
C 29.393306 50.701598 30.742997                                                 
C 29.298995 50.626389 36.827402                                                 
C 30.678885 53.027569 30.721890                                                 
C 32.012883 50.624577 36.818020                                                 
C 33.394497 48.368023 30.676112                                                 
C 33.354935 48.300207 36.782489                                                 
C 34.734243 50.696065 30.674082                                                 
C 36.049953 48.297238 36.795583                                                 
C 29.320332 50.504006 42.844498                                                 
C 29.185822 50.416627 49.199263                                                 
C 30.604535 52.829679 42.937290                                                 
C 31.908110 50.407609 49.178861                                                 
C 33.328105 48.178563 42.807104                                                 
C 33.256388 48.085024 49.228799                                                 
C 34.661460 50.504857 42.920574                                                 
C 35.949614 48.070793 49.148964                                                 
C 37.426260 46.032224 30.679734                                                 
C 37.392732 45.974860 36.779351                                                 
C 38.770360 48.362996 30.681523                                                 
C 40.081329 45.972723 36.802569                                                 
C 37.359427 45.849431 42.877800                                                 
C 37.291486 45.739369 49.138161                                                 
C 38.697053 48.178046 42.945848                                                 
C 39.980626 45.736427 49.100385                                                 
C 45.436780 32.070006 29.985181                                                 
C 45.545132 32.029382 37.377878                                                 
C 46.876112 34.362153 30.336951                                                 
C 48.119719 32.030161 37.106356                                                 
H 49.154130 30.238665 37.074223                                                 
H 50.531690 32.588755 30.573566                                                 
C 45.481132 36.711767 30.448038                                                 
C 45.484419 36.684933 37.118867                                                 
C 46.839653 39.036664 30.617329                                                 
C 48.160287 36.676997 36.992955                                                 
C 49.505868 34.385750 30.555822                                                 
C 49.536305 34.334875 36.966546                                                 
C 50.896598 36.673626 30.673397                                                 
C 52.168362 34.365239 36.864424                                                 
C 45.354856 31.883730 43.011505                                                 
C 45.438538 31.770206 49.009186                                                 
C 46.778668 34.194437 43.032808                                                 
C 48.017806 31.774063 49.028030                                                 
H 49.068863 29.993424 48.979599                                                 
H 50.438046 32.435842 42.946637                                                 
C 45.404468 36.538869 43.050427                                                 
C 45.375812 36.427590 49.081105                                                 
C 46.756983 38.862740 43.019945                                                 
C 48.053990 36.431188 49.095161                                                 
C 49.403158 34.227194 42.982374                                                 
C 49.432233 34.089644 49.070341                                                 
C 50.801226 36.514582 42.968726                                                 
C 52.067206 34.129950 49.065022                                                 
H 53.195918 32.568030 36.844451                                                 
H 53.104926 32.338368 49.030457                                                 
C 57.602657 39.089798 30.760538                                                 
C 57.565289 38.966909 36.830989                                                 
C 58.942497 41.352231 30.734968                                                 
C 60.278619 39.040263 36.850384                                                 
C 57.505833 38.907152 42.931744                                                 
C 57.471126 38.733282 49.070306                                                 
C 58.848098 41.162678 42.936064                                                 
C 60.187254 38.805960 49.035182                                                 
C 45.490572 46.027508 30.699178                                                 
C 45.455961 45.977373 36.813901                                                 
C 46.833783 48.357480 30.694954                                                 
C 48.143103 45.976834 36.811059                                                 
C 49.524276 43.695150 30.693613                                                 
C 49.490547 43.652367 36.829872                                                 
C 50.866348 46.026210 30.694779                                                 
C 52.177860 43.651084 36.814527                                                 
C 45.411092 45.846479 42.980570                                                 
C 45.358155 45.739353 49.110788                                                 
C 46.752133 48.172143 42.972384                                                 
C 48.047448 45.742182 49.121414                                                 
C 49.439127 43.520012 42.965453                                                 
C 49.393545 43.416290 49.118796                                                 
C 50.781277 45.844271 42.957364                                                 
C 52.084529 43.421328 49.114190                                                 
C 53.562349 41.369260 30.706985                                                 
C 53.528252 41.320254 36.825952                                                 
C 54.903436 43.697171 30.702477                                                 
C 56.217631 41.326226 36.817170                                                 
C 53.470446 41.192951 42.950441                                                 
C 53.433083 41.088995 49.103033                                                 
C 54.814512 43.514261 42.950906                                                 
C 56.124973 41.096764 49.093013                                                 
H 57.251909 34.912310 36.838478                                                 
H 58.645670 37.303540 30.814047                                                 
H 57.156994 34.678960 49.036061                                                 
H 58.539762 37.115897 42.923571                                                 
C 45.487729 41.368187 30.656596                                                 
C 45.461747 41.329902 36.901934                                                 
C 46.836249 43.696126 30.689736                                                 
C 48.147650 41.328578 36.882246                                                 
C 49.525409 39.030320 30.663024                                                 
C 49.504571 39.002385 36.904974                                                 
C 50.872324 41.358749 30.691211                                                 
C 52.188233 38.997608 36.857737                                                 
C 45.409545 41.193466 43.006871                                                 
C 45.362496 41.085725 49.102245                                                 
C 46.755186 43.519348 42.983272                                                 
C 48.049321 41.089014 49.114414                                                 
C 49.439737 38.865143 42.985474                                                 
C 49.401811 38.757592 49.107938                                                 
C 50.785864 41.187008 42.963058                                                 
C 52.088080 38.763482 49.101760                                                 
C 53.553621 36.733987 30.750960                                                 
C 53.548804 36.647865 36.848548                                                 
C 54.921319 39.013278 30.736841                                                 
C 56.218721 36.705739 36.834465                                                 
C 53.455418 36.564854 42.939108                                                 
C 53.448504 36.414616 49.080134                                                 
C 54.826334 38.839795 42.940589                                                 
C 56.122929 36.473192 49.065961                                                 
H 61.302568 37.243472 36.879686                                                 
H 62.679057 39.635614 30.819646                                                 
H 61.205203 37.005716 48.992759                                                 
H 62.572287 39.435093 42.914032                                                 
H 28.278883 61.678738 36.890345                                                 
H 28.193914 61.482372 48.987376                                                 
C 29.392135 60.070044 30.771577                                                 
C 29.292277 59.878060 36.874871                                                 
C 30.681207 62.301377 30.757544                                                 
C 32.007149 59.953552 36.859541                                                 
C 33.401799 57.692061 30.701374                                                 
C 33.352014 57.592490 36.848449                                                 
C 34.739590 60.009978 30.697781                                                 
C 36.041340 57.601913 36.838927                                                 
H 29.661588 64.099287 30.804384                                                 
H 32.315390 63.998452 36.883012                                                 
C 33.396060 62.373699 30.719458                                                 
C 33.349307 62.207873 36.865428                                                 
C 34.743939 64.633534 30.723115                                                 
C 36.028951 62.274903 36.854760                                                 
C 29.319046 59.865221 42.946215                                                 
C 29.204889 59.678177 49.026440                                                 
C 30.605979 62.098386 42.940609                                                 
C 31.921768 59.749007 49.062956                                                 
C 33.324464 57.491584 42.976441                                                 
C 33.260480 57.381404 49.088145                                                 
C 34.661281 59.809801 42.966672                                                 
C 35.953250 57.388486 49.107598                                                 
H 29.584207 63.897471 42.920075                                                 
H 32.234243 63.795359 48.986915                                                 
C 33.319007 62.171470 42.952621                                                 
C 33.267494 62.004319 49.048151                                                 
C 34.667402 64.433080 42.949080                                                 
C 35.949536 62.069184 49.082924                                                 
C 41.463047 57.677600 30.693639                                                 
C 41.417097 57.598377 36.828173                                                 
C 42.807482 60.006215 30.700395                                                 
C 44.101398 57.600588 36.822484                                                 
C 41.379480 57.479832 42.969199                                                 
C 41.333195 57.377966 49.125314                                                 
C 42.723291 59.806431 42.964678                                                 
C 44.020896 57.379153 49.127888                                                 
C 37.428847 60.014276 30.693829                                                 
C 37.384554 59.922672 36.839557                                                 
C 38.773294 62.339402 30.699681                                                 
C 40.069055 59.930169 36.833896                                                 
C 37.348464 59.815131 42.965068                                                 
C 37.301390 59.710604 49.111712                                                 
C 38.691579 62.138292 42.959291                                                 
C 39.987964 59.714073 49.123188                                                 
C 41.462260 53.017570 30.686095                                                 
C 41.420555 52.948057 36.829937                                                 
C 42.805285 55.347535 30.690526                                                 
C 44.106674 52.949095 36.822179                                                 
C 41.381315 52.826403 42.985696                                                 
C 41.329974 52.722999 49.111082                                                 
C 42.722416 55.152403 42.974652                                                 
C 44.017797 52.722248 49.120650                                                 
C 37.432258 55.353086 30.684135                                                 
C 37.387775 55.270922 36.837947                                                 
C 38.773770 57.678048 30.688601                                                 
C 40.076131 55.274058 36.832306                                                 
C 37.352648 55.157194 42.985986                                                 
C 37.296249 55.052852 49.108001                                                 
C 38.693182 57.480370 42.975781                                                 
C 39.987112 55.053376 49.117384                                                 
C 41.434726 67.012138 30.738919                                                 
C 41.447862 66.887778 36.883860                                                 
C 42.854076 69.326643 30.783932                                                 
C 44.073513 66.925413 36.880361                                                 
C 41.353272 66.808255 42.959149                                                 
C 41.379173 66.679968 49.061642                                                 
C 42.774202 69.121928 42.955336                                                 
C 44.008188 66.714105 49.094258                                                 
H 37.767186 68.768801 30.754394                                                 
H 40.414614 68.679398 36.908736                                                 
H 37.688118 68.566581 42.945860                                                 
H 40.349342 68.474189 49.003266                                                 
C 41.458808 62.340905 30.706118                                                 
C 41.414314 62.251756 36.841960                                                 
C 42.807818 64.667080 30.723242                                                 
C 44.096861 62.257092 36.838170                                                 
C 41.375738 62.138595 42.963967                                                 
C 41.338817 62.038236 49.113463                                                 
C 42.725263 64.462526 42.966126                                                 
C 44.024341 62.041975 49.122633                                                 
H 33.709948 66.426485 30.752787                                                 
H 33.631928 66.226036 42.940746                                                 
C 37.416708 64.690318 30.712520                                                 
C 37.398269 64.547622 36.869680                                                 
C 38.800069 66.974473 30.729392                                                 
C 40.052910 64.600504 36.862386                                                 
C 37.336644 64.488534 42.954632                                                 
C 37.320820 64.341931 49.054614                                                 
C 38.721815 66.772631 42.954897                                                 
C 39.979508 64.392145 49.083934                                                 
C 61.659671 41.433634 30.766774                                                 
C 61.561707 41.274605 36.858153                                                 
C 62.948512 43.667142 30.765937                                                 
H 63.627921 41.299257 36.889695                                                 
C 61.653503 46.053679 30.735301                                                 
C 61.548084 45.950955 36.846013                                                 
C 62.938491 48.351177 30.741732                                                 
H 63.616543 45.957052 36.864486                                                 
H 65.016714 43.683732 30.812445                                                 
C 61.561910 41.237075 42.925604                                                 
C 61.474116 41.038290 49.021037                                                 
C 62.852429 43.465781 42.921979                                                 
H 63.539614 41.054313 48.960532                                                 
C 61.559100 45.852480 42.931613                                                 
C 61.466510 45.720780 49.033481                                                 
C 62.843175 48.148574 42.928388                                                 
H 63.533813 45.717329 48.971783                                                 
H 64.920481 43.480333 42.907152                                                 
C 61.651784 55.329780 30.466217                                                 
C 61.543805 55.285601 37.093567                                                 
C 62.936076 57.713678 30.323140                                                 
H 63.609453 55.284755 37.163742                                                 
H 65.009015 53.039170 30.686058                                                 
C 61.559988 55.125959 43.034011                                                 
C 61.466877 55.083587 49.080559                                                 
C 62.854653 57.510106 43.092764                                                 
H 63.535185 55.087514 49.016261                                                 
H 64.915217 52.829022 42.961677                                                 
C 61.652797 50.694088 30.685757                                                 
C 61.546288 50.622655 36.883163                                                 
C 62.938854 53.032786 30.630454                                                 
H 65.008470 48.350382 30.783601                                                 
C 61.557718 50.489904 42.952227                                                 
C 61.469217 50.401762 49.047835                                                 
C 62.844485 52.828474 42.976865                                                 
H 64.913418 48.147031 42.914360                                                 
H 41.807390 71.110929 30.815641                                                 
H 44.440708 71.018117 36.937757                                                 
H 41.727083 70.906643 42.944811                                                 
H 44.387893 70.809947 49.012725                                                 
C 45.432952 69.325755 30.818633                                                 
C 45.493265 69.239150 36.912680                                                 
H 46.480539 71.107172 30.886708                                                 
C 48.070683 69.245449 36.923272                                                 
C 49.487881 66.980511 30.789890                                                 
C 49.490121 66.933225 36.912369                                                 
H 50.516123 68.774540 30.859154                                                 
C 52.121341 66.902569 36.977041                                                 
H 49.116534 71.029981 36.955284                                                 
C 45.350716 69.117390 42.959281                                                 
C 45.434588 69.028244 49.072559                                                 
H 46.401493 70.896493 42.953043                                                 
C 48.012103 69.027475 49.097735                                                 
C 49.399378 66.766085 42.983673                                                 
C 49.431631 66.712591 49.131787                                                 
H 50.431680 68.557444 42.979047                                                 
C 52.063887 66.675216 49.144645                                                 
H 49.058872 70.810354 49.064946                                                 
H 57.197531 66.362505 37.304062                                                 
H 57.156686 66.125455 49.140824                                                 
H 53.151727 68.696996 37.028760                                                 
H 53.097332 68.468594 49.123975                                                 
C 57.582181 62.311138 30.156923                                                 
C 57.514429 62.307985 37.291946                                                 
H 58.622650 64.096795 30.066306                                                 
C 60.231715 62.221457 37.469421                                                 
C 57.504259 62.077202 43.141588                                                 
C 57.469015 62.072291 49.165926                                                 
H 58.541390 63.866423 43.179927                                                 
C 60.185347 62.000607 49.139760                                                 
C 53.543383 64.651093 30.581754                                                 
C 53.505402 64.620845 37.022375                                                 
C 56.166115 64.573026 37.192261                                                 
C 53.452863 64.424521 43.050758                                                 
C 53.448217 64.390125 49.159900                                                 
C 56.120257 64.333219 49.163833                                                 
C 61.652402 59.948627 30.059509                                                 
C 61.532003 59.971278 37.449549                                                 
H 62.682585 61.738251 29.949006                                                 
H 63.591281 59.956201 37.579805                                                 
H 65.002735 57.714800 30.415403                                                 
H 61.253870 64.010106 37.624633                                                 
C 61.562221 59.739754 43.157934                                                 
C 61.473902 59.768057 49.113165                                                 
H 62.578091 61.539643 43.205760                                                 
H 63.541044 59.752325 49.048678                                                 
H 64.924299 57.494732 43.086199                                                 
H 61.205797 63.800359 49.103288                                                 
H 63.536633 50.402033 48.985719                                                 
H 36.284684 34.642769 48.942668                                                 
H 36.287637 66.132250 48.991068                                                 
H 27.252041 50.499439 42.826335                                                 
H 54.486878 66.215216 43.060052                                                 
H 63.613990 50.624686 36.909967                                                 
H 54.490504 34.773271 42.922957                                                 
H 36.378821 34.899713 36.909131                                                 
H 36.364659 66.338026 36.889378                                                 
H 54.574060 66.444103 30.592665                                                 
H 27.326401 50.702842 30.810920                                                 
H 54.594489 34.948453 30.815953                                                 
Li 59.077888 60.072625 33.865100                                                
Li 30.329317 43.381001 46.142929                                                
Li 43.924241 33.925851 33.583098                                                
Li 46.992480 68.489040 45.992640                                                
%ENDBLOCK POSITIONS_ABS                                                         

--------------------------------------------------------------------------------
-------------------------------- END INPUT FILE --------------------------------
--------------------------------------------------------------------------------


 
<<<<<<<<<<<<<<<<<<<<<<<<<<<<<<<<< Full system >>>>>>>>>>>>>>>>>>>>>>>>>>>>>>>>>>
<<<<<<<<<<<<<<<<<<<<<<<<<<< PAW Dataset information >>>>>>>>>>>>>>>>>>>>>>>>>>>
File: ~/pp/paw/c_pbe_abinit.paw; rc = 1.25 bohr; shape type =  3; rshape = 1.25 bohr;
  Atomic number:  6;  ionic charge:  4.000000
    Partial Wave 1: l = 0
    Partial Wave 2: l = 0
    Partial Wave 3: l = 1
    Partial Wave 4: l = 1
  Core charge supplied for Nonlinear Core Corrections
File: ~/pp/paw/h_pbe_abinit.paw; rc = 0.90 bohr; shape type =  3; rshape = 0.90 bohr;
  Atomic number:  1;  ionic charge:  1.000000
    Partial Wave 1: l = 0
    Partial Wave 2: l = 0
File: ~/pp/paw/li_pbe_abinit.paw; rc = 1.42 bohr; shape type =  3; rshape = 1.42 bohr;
  Atomic number:  3;  ionic charge:  3.000000
    Partial Wave 1: l = 0
    Partial Wave 2: l = 0
    Partial Wave 3: l = 0
    Partial Wave 4: l = 1
    Partial Wave 5: l = 1
<<<<<<<<<<<<<<<<<<<<<<<<<<<<<<<<<<<<<<< >>>>>>>>>>>>>>>>>>>>>>>>>>>>>>>>>>>>>>>

-------------------------- Atom counting information ---------------------------
Symbol    Natoms    Nngwfs    Nprojs
  C        484      1936      3872
  H        108       108       216
  Li         4        20        36
.......   ......    ......    ......
Totals:    596      2064      4124
--------------------------------------------------------------------------------

=============================== PSINC grid sizes ===============================
                      Simulation cell:  189 x 189 x 189
                              FFT-box:  117 x 117 x 117
                                  PPD:    7 x   7 x   1
Grid space d1=  0.499927596032a0 (KE cutoff=  30.39413Eh = 827.06648eV)
Grid space d2=  0.499927596032a0 (KE cutoff=  30.39413Eh = 827.06648eV)
Grid space d3=  0.499927596032a0 (KE cutoff=  30.39413Eh = 827.06648eV)
================================================================================
  
WARNING in cell_grid_distribute:
Average of less than one 23-slab per node, so workload cannot be
equally balanced between nodes.

********************* Fourier parallelisation information **********************
       Coarse grid (whole simulation cell) dimensions:    189   189   189
          Real-space ('12') slabs/node (min max mean):      1     2     1
         Recip-space ('23') slabs/node (min max mean):      0     1     0
********************************************************************************

********************* Fourier parallelisation information **********************
       Double grid (whole simulation cell) dimensions:    378   378   378
          Real-space ('12') slabs/node (min max mean):      2     3     2
         Recip-space ('23') slabs/node (min max mean):      1     2     1
********************************************************************************

Atom SCF Calculation for C  : Z (AE atom) =   6 : Z (PS atom) =   4
Config String: 2s2 2p2
Orbitals (num,occ):  2     2.00 2.00
Orbitals   (num,l):  2        0    1
Real-space Grid (nr,dr,rmax): 1377    0.0065406977    9.0000000000
Spherical Bessel Basis (nsws,lmax,cutoff):   37    2  183.0099912382
Confining potential (l,width,scale):  0    3.0000000000  100.0000000000
Confining potential (l,width,scale):  1    3.0000000000  100.0000000000
  1         -5.4350126632   -1.2715272878    4.5135247139   -1.5681949477
  2         -5.3876836850   -1.3562195125    4.4235426751   -1.5380057521
  3         -5.3928844498   -1.3758175853    4.4021699684   -1.5318377811
  4         -5.3988962903   -1.3800385428    4.3975423583   -1.5307324410
  5         -5.4018428823   -1.3823489590    4.3950111904   -1.5301555648
  6         -5.4033571720   -1.3835805046    4.3936635548   -1.5298576834
  7         -5.4041480647   -1.3842324820    4.3929512000   -1.5297032953
  8         -5.4045641108   -1.3845769138    4.3925755232   -1.5296229456
  9         -5.4047838258   -1.3847587737    4.3923775340   -1.5295810042
 10         -5.4049001347   -1.3848548089    4.3922731819   -1.5295590658
 11         -5.4049618018   -1.3849055476    4.3922181562   -1.5295475724
 12         -5.4049945351   -1.3849323732    4.3921891206   -1.5295415432
 13         -5.4050119258   -1.3849465673    4.3921737867   -1.5295383767
 14         -5.4050211723   -1.3849540841    4.3921656816   -1.5295367119
 15         -5.4050260920   -1.3849580684    4.3921613935   -1.5295358358
 16         -5.4050287113   -1.3849601822    4.3921591228   -1.5295353742
 17         -5.4050301068   -1.3849613045    4.3921579192   -1.5295351307
 18         -5.4050308507   -1.3849619010    4.3921572806   -1.5295350022
 19         -5.4050312476   -1.3849622183    4.3921569415   -1.5295349343
 20         -5.4050314594   -1.3849623873    4.3921567612   -1.5295348984
 21         -5.4050315725   -1.3849624773    4.3921566653   -1.5295348794
 22         -5.4050316330   -1.3849625253    4.3921566143   -1.5295348693
Atom SCF converged after  22 iterations to a total energy of     -5.40503163

Atom SCF Calculation for H  : Z (AE atom) =   1 : Z (PS atom) =   1
Config String: 1s1
Orbitals (num,occ):  1     1.00
Orbitals   (num,l):  1        0
Real-space Grid (nr,dr,rmax): 1377    0.0065406977    9.0000000000
Spherical Bessel Basis (nsws,lmax,cutoff):   37    1  183.0099912382
Confining potential (l,width,scale):  0    3.0000000000  100.0000000000
  1         -0.3605254152   -0.2399954029    0.2820952946   -0.2424203210
  2         -0.4156854077   -0.2398249290    0.2871789324   -0.2464796203
  3         -0.4412552402   -0.2379720642    0.2899127187   -0.2499011370
  4         -0.4517265951   -0.2371980236    0.2908966173   -0.2514141636
  5         -0.4557775773   -0.2369735141    0.2911607883   -0.2519713623
  6         -0.4573363459   -0.2369240355    0.2912108681   -0.2521663171
  7         -0.4579443228   -0.2369187864    0.2912112833   -0.2522344454
  8         -0.4581858602   -0.2369215483    0.2912049187   -0.2522587615
  9         -0.4582834939   -0.2369242589    0.2912002081   -0.2522677042
 10         -0.4583235236   -0.2369258837    0.2911975892   -0.2522710965
 11         -0.4583401154   -0.2369267223    0.2911962825   -0.2522724192
 12         -0.4583470483   -0.2369271266    0.2911956643   -0.2522729467
 13         -0.4583499624   -0.2369273145    0.2911953803   -0.2522731607
 14         -0.4583511926   -0.2369274000    0.2911952521   -0.2522732486
 15         -0.4583517136   -0.2369274385    0.2911951948   -0.2522732850
 16         -0.4583519349   -0.2369274556    0.2911951693   -0.2522733002
 17         -0.4583520290   -0.2369274632    0.2911951581   -0.2522733066
Atom SCF converged after  17 iterations to a total energy of     -0.45835203

Atom SCF Calculation for Li : Z (AE atom) =   3 : Z (PS atom) =   3
Config String: 1s2 2s1 2p0
Orbitals (num,occ):  3     2.00 1.00 0.00
Orbitals   (num,l):  3        0    0    1
Real-space Grid (nr,dr,rmax): 1377    0.0065406977    9.0000000000
Spherical Bessel Basis (nsws,lmax,cutoff):   37    2  183.0099912382
Confining potential (l,width,scale):  0    3.0000000000  100.0000000000
Confining potential (l,width,scale):  1    3.0000000000  100.0000000000
  1         -6.0640888065   -4.6655401716    2.5388576516   -0.9989538799
  2         -6.9627542978   -4.0954079129    2.9808988108   -1.1965571426
  3         -7.2692687601   -3.8889996707    3.2029735703   -1.3193883705
  4         -7.3784440298   -3.8322099748    3.2868571989   -1.3711018151
  5         -7.4170278248   -3.8191968371    3.3144974220   -1.3911175539
  6         -7.4303549880   -3.8172386945    3.3228486489   -1.3986896266
  7         -7.4348052089   -3.8175483495    3.3251259310   -1.4015352495
  8         -7.4362242328   -3.8180607346    3.3256233205   -1.4026016384
  9         -7.4366459715   -3.8184145665    3.3256561549   -1.4029998726
 10         -7.4367560626   -3.8186169740    3.3256001574   -1.4031477379
 11         -7.4367765260   -3.8187239825    3.3255481763   -1.4032021548
 12         -7.4367751741   -3.8187782620    3.3255144587   -1.4032219192
 13         -7.4367707398   -3.8188051288    3.3254952336   -1.4032289600
 14         -7.4367680349   -3.8188156035    3.3254870176   -1.4032309087
 15         -7.4367661982   -3.8188217406    3.3254819951   -1.4032318132
 16         -7.4367650112   -3.8188253257    3.3254789583   -1.4032322224
 17         -7.4367642682   -3.8188274151    3.3254771375   -1.4032324006
 18         -7.4367638134   -3.8188286307    3.3254760529   -1.4032324736
 19         -7.4367635392   -3.8188293370    3.3254754103   -1.4032325004
 20         -7.4367633760   -3.8188297469    3.3254750310   -1.4032325080
 21         -7.4367632796   -3.8188299846    3.3254748079   -1.4032325082
Atom SCF converged after  21 iterations to a total energy of     -7.43676328

Determining parallel strategy ...
... using space-filling curve
... NGWF load balancing: max     16;  min     12;  average     13
... Projector load balancing: max     32;  min     24;  average     26
... done
Calculating Ewald energy ...
              Ewald: real-space energy =   35750.764088
        Ewald: reciprocal-space energy =   33777.045870
         Ewald: (sum_charge)**2 Energy =    2658.062716
         Ewald: (sum_charge**2) Energy =     242.180421
                          Ewald Energy =   66627.566820
======================= Empirical dispersion information =======================
Model : Grimme D2
Dispersion Correction Energy: -0.18293092E+01 Hartree
================================================================================
Basis initialisation ...... NGWF spheres initialised
... Projector spheres initialised
... NGWF tight boxes initialised
... Projector tight boxes initialised
... Tight-boxes gathered
... NGWF basis size (local,global):     259891  41660312
... PAW projector initialisation
... done

============================= Charge Augmentation ==============================
                           Aug box size:   13 x  13 x  13
================================================================================

========================== Sparse matrix information ===========================
                        Overlap matrix filling:  39.36%
                        Density kernel filling: 100.00%
              NGWF-Proj overlap matrix filling:  11.26%
                    Aug Overlap matrix filling:  43.65%
                    Hamiltonian matrix filling:  43.65%
                  NGWF diagonal matrix filling:   0.19%
                             KS matrix filling: 100.00% 
                           KSKS matrix filling: 100.00% 
================================================================================

Sparse matrix initialisation ... done
NGWF initialisation ...... done
============ Calculation of NGWF S^-1 using Hotelling algorithm ================ 
         Iteration  |  Frobenius norm and Maximum abs value    (of I-S*S_n^-1)   
               1       0.45030027E+02     0.99510725E+00
               2       0.44652569E+02     0.99026210E+00
               3       0.43961384E+02     0.98070751E+00
               4       0.42789439E+02     0.96209812E+00
               5       0.41030968E+02     0.92660674E+00
               6       0.38747829E+02     0.86112867E+00
               7       0.36047230E+02     0.77537336E+00
               8       0.33022000E+02     0.75615551E+00
               9       0.29984612E+02     0.74045717E+00
              10       0.27087612E+02     0.72621726E+00
              11       0.23844305E+02     0.70841736E+00
              12       0.19596309E+02     0.68648908E+00
              13       0.14048579E+02     0.64873057E+00
              14       0.79006783E+01     0.58444497E+00
              15       0.29916648E+01     0.47853168E+00
              16       0.71072331E+00     0.32293032E+00
              17       0.21405951E+00     0.14764632E+00
              18       0.43853318E-01     0.30911100E-01
              19       0.19222740E-02     0.13552482E-02
              20       0.36951372E-05     0.26051583E-05
              21       0.13651620E-10     0.96207486E-11
              22       0.35319177E-13     0.44408921E-14
================================================================================
Calculating core density ...
================================= Core Density =================================
               Core den box size:   21 x  21 x  21
================================================================================
 ... done
Up spin density kernel initialisation ...... done
Down spin density kernel initialisation ...... done

Writing density kernel to file "4/592nano.dkn" ... done

>>> Optimising kernel for current NGWFs:

--------------------------- Ensemble-DFT optimisation --------------------------
Running ScaLAPACK on  160 processor(s).
(P)DSYGVX in subroutine dense_eigensolve returned info=    2
 ifail=           0           0
 iclustr=         493         517
 gap=  2.844334068174193E-005  2.607006224116351E-005
(P)DSYGVX in subroutine dense_eigensolve returned info=    2
 ifail=           0           0
 iclustr=         493         517
 gap=  2.844334068175354E-005  2.607006224117415E-005

--------------------------------------------------------------------------------
  Iter                              Commutator    Free_energy(A=E-TS)     DeltaA
#    0                          0.000722661033   -2844.59061665165973  -2.84E+03

Step                       =       0.381966011250
Energy                     =   -2844.573722276010
Entropy (-TS)              =      -0.016894375934
Free energy (A=E-TS)       =   -2844.590616651660
Est. 0K Energy 0.5*(E+A)   =   -2844.582169463835
Residual Non-orthogonality =       0.000000000000
Residual N_electrons       =       0.000000000285

Spin          Integrated_Ne            Fermi_level     Delta_Fermi_level
   1      1028.000000000556        -0.256126965440             -2.56E-01
   2      1028.000000000556        -0.256126965439             -2.56E-01

                           Spin 1           |                 Spin 2           |
     Orb |    H-eigenvalues     Occupancies |    H-eigenvalues     Occupancies |
       1 |    -1.9107700759    1.0000000000 |    -1.9107700759    1.0000000000 | 
                          ------                             ------
    1024 |    -0.2907965240    0.9999824033 |    -0.2907965240    0.9999824033 | 
    1025 |    -0.2901305321    0.9999782848 |    -0.2901305321    0.9999782848 | 
    1026 |    -0.2793062595    0.9993379072 |    -0.2793062595    0.9993379072 | 
    1027 |    -0.2671951534    0.9705468121 |    -0.2671951534    0.9705468121 | 
    1028 |    -0.2549676574    0.4094884399 |    -0.2549676574    0.4094884399 | 
                 - Gap at zero temperature - |     - Gap at zero temperature -
    1029 |    -0.2525925377    0.2467383747 |    -0.2525925377    0.2467383747 | 
    1030 |    -0.2516379289    0.1950497731 |    -0.2516379289    0.1950497731 | 
    1031 |    -0.2479379216    0.0700516873 |    -0.2479379216    0.0700516873 | 
    1032 |    -0.2459321612    0.0384471596 |    -0.2459321612    0.0384471596 | 
    1033 |    -0.2438041191    0.0200112341 |    -0.2438041191    0.0200112341 | 
                          ------                             ------
    2064 |     0.5665961032    0.0000000000 |     0.5665961032    0.0000000000 | 

                       |  Abs_value |  Threshold | Converged
     Delta_Free_energy |   2.84E+03 |   1.00E-06 |        No
     Delta_Energy      |   2.84E+03 |   1.00E-04 |        No
     Delta_Entropy     |   1.69E-02 |   1.00E-04 |        No
     Commutator        |   7.23E-04 |   1.00E-05 |        No
     Delta_Fermi_level |   2.56E-01 |   1.00E-03 |        No

  Line search of the free energy minimum:
  Step_type        Step             Free_energy   Predicted_free_energy
.   Initial    0.000000    -2844.59061665165973
.    Trial1    0.381966    -2844.88885974352252
.    Trial2    0.618034    -2844.40570769072974
. Quadratic    0.276318    -2844.92932326776690    -2844.93992269000864

--------------------------------------------------------------------------------
  Iter                              Commutator    Free_energy(A=E-TS)     DeltaA
#    1                          0.000383307508   -2844.92932326776690  -3.39E-01

Step                       =       0.276318397773
Energy                     =   -2844.910808798722
Entropy (-TS)              =      -0.018514469002
Free energy (A=E-TS)       =   -2844.929323267767
Est. 0K Energy 0.5*(E+A)   =   -2844.920066033244
Residual Non-orthogonality =       0.000000000000
Residual N_electrons       =      -0.000000000044

Spin          Integrated_Ne            Fermi_level     Delta_Fermi_level
   1      1028.000000000730        -0.236602253261              1.95E-02
   2      1027.999999999086        -0.236602253330              1.95E-02

                           Spin 1           |                 Spin 2           |
     Orb |    H-eigenvalues     Occupancies |    H-eigenvalues     Occupancies |
       1 |    -1.9394043479    1.0000000000 |    -1.9394043484    1.0000000000 | 
                          ------                             ------
    1024 |    -0.2691635444    0.9999657587 |    -0.2691635449    0.9999657587 | 
    1025 |    -0.2656197626    0.9998951636 |    -0.2656197626    0.9998951636 | 
    1026 |    -0.2573910241    0.9985925607 |    -0.2573910240    0.9985925606 | 
    1027 |    -0.2461955927    0.9538820207 |    -0.2461955926    0.9538820185 | 
    1028 |    -0.2352518347    0.3949795042 |    -0.2352518347    0.3949794927 | 
                 - Gap at zero temperature - |     - Gap at zero temperature -
    1029 |    -0.2323805713    0.2086467548 |    -0.2323805712    0.2086467468 | 
    1030 |    -0.2310605107    0.1480542644 |    -0.2310605116    0.1480542976 | 
    1031 |    -0.2301363488    0.1148864976 |    -0.2301363487    0.1148864927 | 
    1032 |    -0.2287380571    0.0770360375 |    -0.2287380570    0.0770360341 | 
    1033 |    -0.2271184085    0.0476630961 |    -0.2271184084    0.0476630939 | 
                          ------                             ------
    2064 |     0.5862452408    0.0000000000 |     0.5862452408    0.0000000000 | 

                       |  Abs_value |  Threshold | Converged
     Delta_Free_energy |   3.39E-01 |   1.00E-06 |        No
     Delta_Energy      |   3.37E-01 |   1.00E-04 |        No
     Delta_Entropy     |   1.62E-03 |   1.00E-04 |        No
     Commutator        |   3.83E-04 |   1.00E-05 |        No
     Delta_Fermi_level |   1.95E-02 |   1.00E-03 |        No

  Line search of the free energy minimum:
  Step_type        Step             Free_energy   Predicted_free_energy
.   Initial    0.000000    -2844.92932326776690
.    Trial1    0.276318    -2844.96751753199760
.    Trial2    0.552740    -2844.51664430302753
. Quadratic    0.159750    -2845.01004306590949    -2845.01101353449349

--------------------------------------------------------------------------------
  Iter                              Commutator    Free_energy(A=E-TS)     DeltaA
#    2                          0.000241222243   -2845.01004306590949  -8.07E-02

Step                       =       0.159750069039
Energy                     =   -2844.991527580803
Entropy (-TS)              =      -0.018515485034
Free energy (A=E-TS)       =   -2845.010043065909
Est. 0K Energy 0.5*(E+A)   =   -2845.000785323356
Residual Non-orthogonality =       0.000000000000
Residual N_electrons       =      -0.000000000073

Spin          Integrated_Ne            Fermi_level     Delta_Fermi_level
   1      1027.999999999177        -0.230414219870              6.19E-03
   2      1028.000000000506        -0.230414219902              6.19E-03

[...]
 C   416 -- C   476       -0.10      0.00      5.38543
 C   272 -- C   294       -0.10      0.00      5.38582
 C   224 -- C   306       -0.10     -0.00      5.38589
 C   220 -- C   238       -0.10      0.00      5.38592
 C   212 -- C   230       -0.09     -0.00      5.38600
 C   364 -- C   390       -0.10     -0.00      5.38616
 C   333 -- C   365       -0.10     -0.00      5.38630
 C   218 -- C   386       -0.10      0.00      5.38634
 C   237 -- C   275       -0.10     -0.00      5.38646
 C   254 -- C   284       -0.10      0.00      5.38651
 C    55 -- C   525       -0.10     -0.00      5.38666
 C   226 -- C   382       -0.10      0.00      5.38682
 C   385 -- C   395       -0.10      0.00      5.38684
 C    76 -- C   564       -0.10      0.00      5.38701
 C   197 -- C   295       -0.09     -0.00      5.38704
 C   209 -- C   223       -0.10      0.00      5.38770
 C    85 -- C    95       -0.10     -0.00      5.38790
 C    77 -- C    91       -0.10     -0.00      5.38828
 C   481 -- C   489       -0.10     -0.00      5.38869
 C   189 -- C   255       -0.10      0.00      5.38871
 C    33 -- C   363       -0.10     -0.00      5.38879
 C    87 -- C    93       -0.10      0.00      5.38919
 C   201 -- C   239       -0.10      0.00      5.38937
 C   430 -- C   480       -0.10      0.00      5.38946
 C    36 -- C    98       -0.09      0.00      5.38953
 C   423 -- C   489       -0.09      0.00      5.38964
 C    40 -- C   102       -0.10     -0.00      5.38986
 C   233 -- C   239       -0.09      0.00      5.38992
 C    38 -- C   104       -0.10      0.00      5.39000
 C    57 -- C   379       -0.10     -0.00      5.39021
 C   316 -- C   390       -0.10     -0.00      5.39053
 C    36 -- C    50       -0.10      0.00      5.39054
 C   103 -- C   525       -0.10     -0.00      5.39073
 C   214 -- C   378       -0.10     -0.00      5.39097
 C    84 -- C   567       -0.10     -0.00      5.39106
 C   477 -- C   485       -0.10     -0.00      5.39117
 C   293 -- C   295       -0.09     -0.00      5.39144
 C   190 -- C   284       -0.10     -0.00      5.39170
 C   409 -- C   485       -0.10     -0.00      5.39192
 C    96 -- C   567       -0.10     -0.00      5.39226
 C   186 -- C   212       -0.09      0.00      5.39291
 C   368 -- C   394       -0.10      0.00      5.39316
 C    67 -- C    89       -0.09      0.00      5.39330
 C   285 -- C   287       -0.10     -0.00      5.39333
 C   444 -- C   492       -0.09     -0.00      5.39351
 C    97 -- C   123       -0.10      0.00      5.39357
 C   408 -- C   416       -0.09      0.00      5.39361
 C    74 -- C   488       -0.09      0.00      5.39398
 C    79 -- C    89       -0.10     -0.00      5.39429
 C   330 -- C   394       -0.10      0.00      5.39456
 C    53 -- C   395       -0.09      0.00      5.39474
 C    90 -- C   124       -0.09      0.00      5.39554
 C   262 -- C   292       -0.09     -0.00      5.39598
 C    51 -- C   521       -0.09      0.00      5.39620
 C   185 -- C   235       -0.09     -0.00      5.39628
 C   202 -- C   216       -0.09      0.00      5.39640
 C   377 -- C   391       -0.09      0.00      5.39644
 C   224 -- C   242       -0.09      0.00      5.39685
 C    81 -- C    87       -0.09     -0.00      5.39688
 C    99 -- C   521       -0.10     -0.00      5.39724
 C   327 -- C   333       -0.09      0.00      5.39743
 C   293 -- C   421       -0.09     -0.00      5.39749
 C    92 -- C   564       -0.09      0.00      5.39905
 C    73 -- C    79       -0.09     -0.00      5.39939
 C   319 -- C   361       -0.09      0.00      5.39966
 C    40 -- C    54       -0.09     -0.00      5.39979
 C    70 -- C   104       -0.09      0.00      5.40015
 C    69 -- C    95       -0.09     -0.00      5.40045
 C    82 -- C   492       -0.09     -0.00      5.40053
 C   186 -- C   192       -0.09      0.00      5.40101
 C   285 -- C   407       -0.09     -0.00      5.40113
 C   211 -- C   315       -0.09      0.00      5.40176
 C   242 -- C   328       -0.09      0.00      5.40412
 C   189 -- C   191       -0.09      0.00      5.40425
 C   422 -- C   430       -0.09     -0.00      5.40429
 C   210 -- C   296       -0.09     -0.00      5.40490
 C    66 -- C   100       -0.09      0.00      5.40651
 C    49 -- C   391       -0.09      0.00      5.40920
 C   229 -- C   235       -0.09      0.00      5.41071
 C   206 -- C   292       -0.09      0.00      5.41423
 C    52 -- C   338       -0.09      0.00      5.41513
 C   466 -- C   538       -0.09      0.00      5.41671
 C   343 -- C   506       -0.09     -0.00      5.41699
 C   252 -- C   406       -0.09      0.00      5.41800
 C    82 -- Li  596       -0.06     -0.00      5.41953
 C   313 -- C   319       -0.09      0.00      5.42029
 C   202 -- C   208       -0.09      0.00      5.42041
 C    83 -- C   467       -0.09     -0.00      5.42087
 C   231 -- C   323       -0.09      0.00      5.42095
 C   205 -- C   207       -0.09      0.00      5.42098
 C   261 -- C   427       -0.09     -0.00      5.42262
 C    75 -- C   463       -0.09      0.00      5.42284
 C    71 -- C   516       -0.09      0.00      5.42322
 C   470 -- C   547       -0.08      0.00      5.42357
 C    56 -- C   342       -0.09     -0.00      5.42364
 C   253 -- C   413       -0.09     -0.00      5.42396
 C   234 -- C   332       -0.09     -0.00      5.42408
 C   238 -- C   314       -0.09     -0.00      5.42455
 C    72 -- C   560       -0.09      0.00      5.42465
 C   182 -- C   188       -0.09     -0.00      5.42599
 C   181 -- C   183       -0.09      0.00      5.42611
 C   260 -- C   420       -0.09     -0.00      5.42641
 C   339 -- C   497       -0.09      0.00      5.42708
 C    65 -- C    91       -0.08     -0.00      5.42928
 H   151 -- Li  595       -0.03      0.00      5.42973
 C   230 -- C   318       -0.08     -0.00      5.44303
 C   197 -- C   199       -0.08     -0.00      5.44468
 C    67 -- C   511       -0.08      0.00      5.45678
 C    68 -- C   556       -0.08     -0.00      5.46784
 H   135 -- Li  595       -0.02      0.00      5.48487
 C   198 -- C   204       -0.07     -0.00      5.49039
 C   227 -- C   309       -0.07      0.00      5.49051
 H   131 -- Li  594       -0.02     -0.00      5.52283
 H   165 -- Li  594       -0.02      0.00      5.53846
 H   557 -- Li  593       -0.02     -0.00      5.55266
 H   571 -- Li  593       -0.02     -0.00      5.57709
 C   180 -- C   195       -0.04     -0.00      5.63314
 C   308 -- C   321       -0.04      0.00      5.63872
=============================================================


============== Orbital energy and occupancy information for spin 1 =============

      Total number of orbitals:    2064
        Occupancy sum (kernel):    1028.000000008
   Occupancy sum (eigenvalues):    1028.000000008
                 HOMO-LUMO gap:       0.001061504 Eh
                 Mid-gap level:      -0.101967648 Eh

                        Orbital | Energy (Eh) | Occupancy
                            1    -1.847842584   1.0000000
                        .......   ...........   .........
                         1019    -0.146812460   0.9999979
                         1020    -0.145438954   0.9999968
                         1021    -0.144437828   0.9999965
                         1022    -0.142719842   0.9999944
                         1023    -0.139442243   0.9999838
                         1024    -0.134383826   0.9999300
                         1025    -0.133781602   0.9999152
                         1026    -0.127717309   0.9994369
                         1027    -0.112833868   0.9421035
                         1028    -0.102498400   0.3808715
                        ....... -- gap at 0K -- .........
                         1029    -0.101436896   0.3071212
                         1030    -0.097735363   0.1205336
                         1031    -0.096897168   0.0958123
                         1032    -0.095420314   0.0621170
                         1033    -0.093290905   0.0324559
                         1034    -0.092528619   0.0261617
                         1035    -0.091098900   0.0166526
                         1036    -0.089003343   0.0086597
                         1037    -0.085464113   0.0028603
                         1038    -0.084396516   0.0020238
                        .......   ...........   .........
                         2064     0.776276649   0.0000000

================================================================================

============== Orbital energy and occupancy information for spin 2 =============

      Total number of orbitals:    2064
        Occupancy sum (kernel):    1027.999999992
   Occupancy sum (eigenvalues):    1027.999999992
                 HOMO-LUMO gap:       0.001061504 Eh
                 Mid-gap level:      -0.101967648 Eh

                        Orbital | Energy (Eh) | Occupancy
                            1    -1.847842584   1.0000000
                        .......   ...........   .........
                         1019    -0.146812460   0.9999979
                         1020    -0.145438955   0.9999968
                         1021    -0.144437828   0.9999965
                         1022    -0.142719842   0.9999944
                         1023    -0.139442243   0.9999838
                         1024    -0.134383827   0.9999300
                         1025    -0.133781602   0.9999152
                         1026    -0.127717309   0.9994369
                         1027    -0.112833867   0.9421035
                         1028    -0.102498400   0.3808714
                        ....... -- gap at 0K -- .........
                         1029    -0.101436896   0.3071213
                         1030    -0.097735363   0.1205336
                         1031    -0.096897168   0.0958123
                         1032    -0.095420314   0.0621170
                         1033    -0.093290905   0.0324559
                         1034    -0.092528619   0.0261618
                         1035    -0.091098900   0.0166526
                         1036    -0.089003343   0.0086597
                         1037    -0.085464113   0.0028603
                         1038    -0.084396516   0.0020238
                        .......   ...........   .........
                         2064     0.776276649   0.0000000

================================================================================

===================== Writing canonical molecular orbitals =====================
    Spin 1
| Orbital  Energy (eV)  Norm     |
| HOMO     -2.78912338  1.000000 | Writing "4/592nano_HOMO_UP.cube" ... done
Writing "4/592nano_HOMO_UP.dx" ... done
| LUMO     -2.76023838  1.000000 | Writing "4/592nano_LUMO_UP.cube" ... done
Writing "4/592nano_LUMO_UP.dx" ... done
================================================================================

===================== Writing canonical molecular orbitals =====================
    Spin 2
| Orbital  Energy (eV)  Norm     |
| HOMO     -2.78912338  1.000000 | Writing "4/592nano_HOMO_DN.cube" ... done
Writing "4/592nano_HOMO_DN.dx" ... done
| LUMO     -2.76023839  1.000000 | Writing "4/592nano_LUMO_DN.cube" ... done
Writing "4/592nano_LUMO_DN.dx" ... done
================================================================================

================== Local Density of States (LDOS) calculation ==================
Writing "4/592nano_UP_LDOS.txt" ...  done
================================================================================

================== Local Density of States (LDOS) calculation ==================
Writing "4/592nano_DN_LDOS.txt" ...  done
================================================================================
 
=============== Density of States (DOS) calculation for UP spin ================
Writing "4/592nano_UP_DOS.txt" ...  done
================================================================================
 
============== Density of States (DOS) calculation for DOWN spin ===============
Writing "4/592nano_DN_DOS.txt" ...  done
================================================================================
 
Writing bands to file "4/592nano.val_bands" ... done
 
================ Projected Density of States (pDOS) calculation ================
 
Constructing AM resolved functions  ...... done
Writing NGWF plot files in formats: CUBE DX ...  done
 
Performing overlap integrals ...  done
 
Computing pDOS weights ...  done
 
All bands spilling parameter =   3.69 %
Occupancy-weighted spilling parameter =   0.98 %
 
 => Outputting data for OptaDOS <=
 
Writing pDOS weights to file "4/592nano.val_pdos_bin" ... done
 
Writing band gradients to file "4/592nano.val_dome_bin" ... done
 
Writing Castep output cell file to "4/592nano-out.cell" ... done
 
 => Computing Gaussian smeared pDOS for UP spin<= 
Writing "4/592nano_UP_PDOS.txt" ...  done
 
 => Computing Gaussian smeared pDOS for DOWN spin<= 
Writing "4/592nano_DN_PDOS.txt" ...  done
 
 => Computing Occupancy-weighted Gaussian smeared pDOS for UP spin<= 
Writing "4/592nano_occ_UP_PDOS.txt" ...  done
  => Band centres for UP spin channel: 
 S band centre of group 1:  -14.320734 eV
 P band centre of group 1:   -7.708891 eV
  Band centres for UP spin channel done. <= 
  => Integrated number of electrons in each AM band for UP spin channel: 
 S num electrons of group 1:  269.054844
 P num electrons of group 1:  748.829647
  Integrated number of electrons for UP spin channel done. <= 
 
 => Computing Occupancy-weighted Gaussian smeared pDOS for DOWN spin<= 
Writing "4/592nano_occ_DN_PDOS.txt" ...  done
  => Band centres for DOWN spin channel: 
 S band centre of group 1:  -14.320734 eV
 P band centre of group 1:   -7.708891 eV
  Band centres for DOWN spin channel done. <=
  => Integrated number of electrons in each AM band for DOWN spin channel: 
 S num electrons of group 1:  269.054844
 P num electrons of group 1:  748.829647
  Integrated number of electrons for DOWN spin channel done. <=
================================================================================

------------------------------ TIMING INFORMATION ------------------------------
AVERAGE TIME:   12719.847s on    160 node(s)                                    
TOTAL TIME:     12719.848s on    160 node(s)                                    
================= AVERAGE TIMINGS FROM ALL NODES (CUMULATIVE) ==================
|| TAG                                    #calls    cpu time   %total  Gflops ||
|| work_imbalance                       :     1        0.00s   0.000%  ------ ||
|| paw_tcore_density                    :     1        0.01s   0.000%  ------ ||
|| paw_sphere_density_on_grid           :     1        0.01s   0.000%  ------ ||
|| sparse_set_to_garbage                :   255        0.01s   0.000%  ------ ||
|| basis_extract_function_from_box      :   387        0.02s   0.000%  ------ ||
|| paw_dij_hartree                      :   766        0.02s   0.000%  ------ ||
|| ngwfs_initialise_from_radial         :     2        0.04s   0.000%  ------ ||
|| ewald_calculate_energy               :     1        0.15s   0.001%  ------ ||
|| density_init_guess_real              :     1        0.23s   0.002%  ------ ||
|| paw_tcore_hartree_on_grid            :     1        0.39s   0.003%  ------ ||
|| pseudo_make_structure_factor         :     1        0.47s   0.004%  ------ ||
|| paw_dataset_init                     :     3        0.48s   0.004%  ------ ||
|| sparse_init                          :     1        0.99s   0.008%  ------ ||
|| dense_normal_eigensolve              :     1        1.01s   0.008%  ------ ||
|| restart_kernel_write                 :    16        1.37s   0.011%  ------ ||
|| paw_species_calc_proj_prec_mat       :     1        2.18s   0.017%  ------ ||
|| sparse_embed_hotelling_invert_embed  :    29        5.01s   0.039%  ------ ||
|| augmentation_screen_dij              :   576        6.71s   0.053%  ------ ||
|| sw_init                              :     1        7.53s   0.059%  ------ ||
|| fourier_apply_box_pair               :   971       10.69s   0.084%  2.399k ||
|| ngwf_gradient_coeffs                 :    15       12.14s   0.095%  ------ ||
|| projectors_init_fftbox_recip         :    61       22.98s   0.181%  ------ ||
|| basis_copy_function_to_box           : 20175       25.66s   0.202%  ------ ||
|| hartree_on_grid                      :   571       31.08s   0.244%  ------ ||
|| integrals_kinetic                    :    29       36.34s   0.286%  ------ ||
|| paw_dij_xc                           :   766       38.72s   0.304%  ------ ||
|| projectors_func_ovlp_box             :    30       42.12s   0.331%  ------ ||
|| function_ops_brappd_ketppd           :    60       48.04s   0.378%  ------ ||
|| sparse_trace                         : 14228       60.09s   0.472%  ------ ||
|| hamiltonian_energy_components        :     3       67.95s   0.534%  ------ ||
|| eigenstates_pdos                     :     1       72.89s   0.573%  ------ ||
|| augmentation_density_on_grid         :   571       79.51s   0.625%  ------ ||
|| aug_nonlocal_mat                     :   751       94.10s   0.740%  ------ ||
|| fourier_apply_cell_forward           :  5131      107.49s   0.845% 166.143 ||
|| basis_dot_function_with_box          : 4.262M     114.52s   0.900%  ------ ||
|| fourier_apply_cell_backward          :  5132      115.78s   0.910% 154.278 ||
|| restart_ngwfs_tightbox_output        :    14      151.09s   1.188%  ------ ||
|| eigenstates_calculate                :     1      157.35s   1.237%  ------ ||
|| xc_energy_potential                  :   570      224.74s   1.767%  ------ ||
|| sparse_product                       : 12494      285.42s   2.244%  ------ ||
|| dense_eigensolve                     :  1076      396.09s   3.114%  ------ ||
|| integrals_locpot_mat_els_batch       :   375      409.58s   3.220%  ------ ||
|| basis_add_function_to_box            : 13.23M     426.81s   3.355%  ------ ||
|| cell_grid_extract_box_real           : 11108      522.53s   4.108%  ------ ||
|| cell_grid_deposit_box_real           : 36628      532.43s   4.186%  ------ ||
|| projectors_gradient_batch            :    15      605.74s   4.762%  ------ ||
|| projectors_grad_precond_batch        :    15      838.80s   6.594%  ------ ||
|| density_fftbox_deposit_to_cell       : 18272      963.96s   7.578%  ------ ||
|| density_batch_row_sums               :   571      998.25s   7.848%  ------ ||
|| properties_calculate                 :     1     1165.56s   9.163%  ------ ||
|| edft_diag_ngwf_ham                   :  1074     1277.83s  10.046%  ------ ||
|| potential_apply_to_ngwf_batch        :   375     1332.23s  10.474%  ------ ||
|| fourier_apply_box                    : 65448     1357.04s  10.669%  4.133k ||
|| density_fftbox_interpolate_multiply  : 18272     1539.00s  12.099%  ------ ||
|| ngwf_gradient_build_batch            :    15     1610.17s  12.659%  ------ ||
|| ngwf_gradient_batch                  :    15     1744.65s  13.716%  ------ ||
|| integrals_locpot_dbl_grid            :   375     1755.31s  13.800%  ------ ||
|| ngwf_gradient_lnv                    :    15     1766.37s  13.887%  ------ ||
|| edft_apply_smearing_operator         :   537     2047.85s  16.100%  ------ ||
|| density_batch_interp_deposit         :   571     3118.01s  24.513%  ------ ||
|| density_on_dbl_grid                  :   571     4210.02s  33.098%  ------ ||
|| hamiltonian_lhxc_calculate           :   566     4748.96s  37.335%  ------ ||
|| edft_calculate                       :    15     8676.91s  68.215%  ------ ||
|| ngwf_cg_optimise                     :     1    11534.71s  90.683%  ------ ||
|| total_time                           :     1    12719.85s 100.000%  ------ ||
================================================================================
Overhead of generating timer report: 
- 0 ms averaging over threads,
- 23 ms ensuring consistency across MPI ranks,
- 0 ms printing in order.

Job completed: 11-08-2020 15:46 (+0100)

