 +---------------------------------------------------------------+
 |                                                               |
 |        ####### #     # ####### ####### ####### ######         |
 |        #     # ##    # #          #    #       #     #        |
 |        #     # # #   # #          #    #       #     #        |
 |        #     # #  #  # #####      #    #####   ######         |
 |        #     # #   # # #          #    #       #              |
 |        #     # #    ## #          #    #       #              |
 |        ####### #     # #######    #    ####### #              |
 |                                                               |
 |        Linear-Scaling Ab Initio Total Energy Program          |
 |                                                               |
 |          Release for academic collaborators of ODG            |
 |                                             Version 5.3.2.12  |
 |                                                               |
 +---------------------------------------------------------------+
 |                                                               |
 |  Authors:                                                     |
 |  Jacek Dziedzic, Peter D. Haynes, Nicholas D. M. Hine,        |
 |  Arash. A. Mostofi, Mike C. Payne and Chris-Kriton Skylaris   |
 |                                                               |
 |  Contributors:                                                |
 |  J. Aarons, L. Andrinopoulos, P. W. Avraam, R. A. Bell,       |
 |  A. Bhandari, G. A. Bramley, R. J. Charlton, S. J. Clark,     |
 |  R. J. Clements, G. C. Constantinescu, F. Corsetti,           |
 |  N. Corsini, O. Dieguez, S. M. M. Dubois, K. K. B. Duff,      |
 |  J. M. Escartin, A. Greco, H. Helal, Q. O. Hill, L. P. Lee,   |
 |  J.-H. Li, E. B. Linscott, G. Moynihan, D. D. O`Regan,        |
 |  O. K. Okan, M. J. S. Phipps, C. J. Pickard,                  |
 |  J. C. A. Prentice, M. I. J. Probert, L. E. Ratcliff,         |
 |  M. Robinson, A. Ruiz Serrano, J. S. Spencer, E. W. Tait,     |
 |  G. Teobaldi, D. Turban, V. Vitale, K. A. Wilkinson,          |
 |  C. Weber, J. C. Womack, N. Yeung and T. J. Zuehlsdorff       |
 |                                                               |
 |                                   Copyright (c) 2004-2020     |
 |                                                               |
 |  Please cite:                                                 |
 |  "Introducing ONETEP: Linear-scaling density functional       |
 |   simulations on parallel computers".                         |
 |   C.-K. Skylaris, P. D. Haynes, A. A. Mostofi, M. C. Payne.   |
 |   J. Chem. Phys. 122 084119 (2005).                           |
 |                                                               |
 |          in all publications arising from your use of ONETEP. |
 |                                                               |
 +---------------------------------------------------------------+
 |                                                               |
 |   ONETEP is based on developments described in the following  |
 |   publications:                                               |
 |                                                               |
 |  "Nonorthogonal generalized Wannier function pseudopotential  |
 |   plane-wave method".                                         |
 |   C.-K. Skylaris, A. A. Mostofi, P. D. Haynes, O. Dieguez,    |
 |   M. C. Payne.                                                |
 |   Phys. Rev. B 66 035119 (2002).                              |
 |                                                               |
 |  "Preconditioned iterative minimization for linear-scaling    |
 |   electronic structure calculations".                         |
 |   A. A. Mostofi, P. D. Haynes, C.-K. Skylaris, M. C. Payne.   |
 |   J. Chem. Phys. 119(17), pp.8842-8848 (2003).                |
 |                                                               |
 |  "Total-energy calculations on a real space grid with         |
 |   localized functions and a plane-wave basis".                |
 |   A. A. Mostofi, C.-K. Skylaris, P. D. Haynes, M. C. Payne.   |
 |   Comput. Phys. Commun. 147, pp.788-802 (2002).               |
 |                                                               |
 |  "Accurate kinetic energy evaluation in electronic structure  |
 |   calculations with localized functions on real space grids"  |
 |   C.-K. Skylaris, A. A. Mostofi, P. D. Haynes, C. J. Pickard, |
 |   M. C. Payne.                                                |
 |   Comput. Phys. Commun. 140, pp.315-322 (2001).               |
 |                                                               |
 |  "Accurate ionic forces and geometry optimization in linear-  |
 |   scaling density-functional theory with local orbitals"      |
 |   N. D. M. Hine, M. Robinson, P. D. Haynes, C.-K. Skylaris,   |
 |   M. C. Payne, and A. A. Mostofi.                             |
 |   Phys. Rev. B 83 195102 (2011).                              |
 |                                                               |
 +---------------------------------------------------------------+

Job started: 25-08-2020 18:49 (+0100)
 
Reading parameters from file "12/592nano.dat" ...... done

If your calculation crashes here, before "Checking processes and threads..."
is displayed, then your stack size is insufficient.
If so, use "ulimit -s unlimited" at runtime.
You can disable this check with "check_stack_size F".

Checking processes and threads...
   Determining the default number of threads...
      No default threads set at compilation time: defaulting to 1.
      OpenMP library call suggests 4 threads.
      Hybrid MPI-OpenMP compilation detected.
      Number of MPI processes > 1.
      OMP_NUM_THREADS environment variable present and
      its value matches the one obtained from the OpenMP library call.
      Using this value as default.
      Default threads: 4
      Default applies to threads_max and threads_num_fftboxes.
      Settings in the input file override this default.
   ... done

   Running with 160 MPI processes.
   There are 10 MPI processes running on the same node as the root process.
   Each MPI process is using: 
               1 threads for simulation cell FFTs.
               1 threads for parallel FFT box operations.
               4 threads for loops over batched FFT box operations.
               4 threads in other parallel regions.
... done

Basic input checks...
Resetting ngwf_cg_rotate to TRUE for EDFT calculations
... done

Reading geometry and species blocks from file "12/592nano.dat" ...    
  Number of PPD points along a3 set to 1.  This is 
  the default value, it may have been provided also in the input file.
... done
 Writing xyz coordinates to file "12/592nano.xyz" ... done


--------------------------------------------------------------------------------
---------------------------------- INPUT FILE ----------------------------------
--------------------------------------------------------------------------------

task : singlepoint                                                              
do_properties : true                                                            
ddec_classical_hirshfeld T                                                      
dx_format T                                                                     
edft T                                                                          
edft_spin_fix 3                                                                 
output_detail VERBOSE                                                           
write_xyz T                                                                     
dispersion 4                                                                    
xc_functional PBE                                                               
cutoff_energy 830 eV                                                            
paw T                                                                           
geom_disp_tol 0.015 bohr                                                        
geom_energy_tol 1.5E-6 hartree                                                  
geom_force_tol 0.003 "ha/bohr"                                                  
EDFT_MAXIT 30                                                                   
pdos_max_l = 2                                                                  
dos_smear  0.1 eV                                                               
popn_calculate T                                                                
PDOS_PSEUDOATOMIC T                                                             
PDOS_REDUCE_SWS F                                                               
PDOS_CONSTRUCT_BASIS F                                                          
PDOS_LOWDIN T                                                                   
PDOS_ORTH_ATOM_BLOCKS F                                                         
PDOS_LCAO_OPTIMIZE F                                                            
pdos_optados_output T                                                           
homo_plot 0                                                                     
lumo_plot 0                                                                     
homo_dens_plot -1                                                               
lumo_dens_plot -1                                                               
%BLOCK SPECIES                                                                  
C C 6 4 9.0                                                                     
H H 1 1 9.0                                                                     
Li Li 3 5 9.0                                                                   
%ENDBLOCK SPECIES                                                               
%BLOCK SPECIES_POT                                                              
C "~/pp/paw/c_pbe_abinit.paw"                                                   
H "~/pp/paw/h_pbe_abinit.paw"                                                   
Li "~/pp/paw/li_pbe_abinit.paw"                                                 
%ENDBLOCK SPECIES_POT                                                           
%BLOCK SPECIES_ATOMIC_SET                                                       
C "SOLVE conf=2s2 2p2"                                                          
H "SOLVE conf=1s1"                                                              
Li "SOLVE conf=1s2 2s1 2p0"                                                     
%ENDBLOCK SPECIES_ATOMIC_SET                                                    
%BLOCK SPECIES_LDOS_GROUPS                                                      
C                                                                               
H                                                                               
Li                                                                              
%ENDBLOCK SPECIES_LDOS_GROUPS                                                   
%BLOCK LATTICE_CART                                                             
94.486315650000      0.000000000000       0.000000000000                        
0.000000000000       94.486315650000      0.000000000000                        
0.000000000000       0.000000000000       94.486315650000                       
%ENDBLOCK LATTICE_CART                                                          
%BLOCK POSITIONS_ABS                                                            
C 45.463358 50.734065 30.781435                                                 
C 45.457273 50.625346 36.844206                                                 
C 46.801293 53.066384 30.746857                                                 
C 48.145438 50.620746 36.841205                                                 
C 49.506581 48.411847 30.757186                                                 
C 49.485890 48.288351 36.831813                                                 
C 50.845464 50.744124 30.730332                                                 
C 52.174966 48.282092 36.800720                                                 
C 45.450005 55.391613 30.685990                                                 
C 45.463320 55.279926 36.848446                                                 
C 46.791800 57.725294 30.544753                                                 
C 48.152232 55.274898 36.849491                                                 
C 49.494952 53.069018 30.711315                                                 
C 49.492045 52.944486 36.840855                                                 
C 50.836160 55.399358 30.578580                                                 
C 52.184995 52.936394 36.829579                                                 
C 45.439064 50.483063 42.966021                                                 
C 45.367135 50.415997 49.044619                                                 
C 46.783031 52.812812 42.989980                                                 
C 48.057617 50.419157 49.072414                                                 
C 49.466703 48.158362 42.972016                                                 
C 49.411905 48.092482 49.098467                                                 
C 50.812854 50.486659 42.984191                                                 
C 52.101610 48.096284 49.216719                                                 
C 45.441577 55.143429 43.012995                                                 
C 45.355543 55.071020 49.105809                                                 
C 46.787524 57.474854 43.041189                                                 
C 48.045348 55.077544 49.130407                                                 
C 49.470620 52.815680 43.006356                                                 
C 49.397369 52.751198 49.117226                                                 
C 50.819236 55.147715 43.050566                                                 
C 52.089247 52.759790 49.226158                                                 
C 57.585821 48.416401 30.624648                                                 
C 57.550023 48.259252 36.683449                                                 
C 58.925612 50.742092 30.555703                                                 
C 60.267381 48.254852 36.606256                                                 
C 57.532139 48.161868 42.744249                                                 
C 57.464958 48.102762 49.680417                                                 
C 58.883811 50.486056 42.674149                                                 
C 60.182802 48.106727 49.939618                                                 
C 53.538724 50.744395 30.676048                                                 
C 53.522796 50.605683 36.792359                                                 
C 54.877519 53.070015 30.565277                                                 
C 56.217399 50.595674 36.739711                                                 
C 53.504558 50.489579 42.947857                                                 
C 53.436602 50.431175 49.309987                                                 
C 54.847518 52.817685 42.962038                                                 
C 56.117796 50.443097 49.562126                                                 
C 57.595293 43.769592 30.622500                                                 
C 57.536919 43.600684 36.675714                                                 
C 58.929934 46.084435 30.605936                                                 
C 60.251173 43.610587 36.598624                                                 
C 57.527485 43.497866 42.725235                                                 
C 57.465105 43.418385 49.688789                                                 
C 58.874596 45.821781 42.639022                                                 
C 60.166123 43.433341 50.039021                                                 
C 53.550206 46.089342 30.696984                                                 
C 53.512384 45.949336 36.769869                                                 
C 54.889208 48.416005 30.675372                                                 
C 56.206215 45.941649 36.709672                                                 
C 53.497367 45.827850 42.915524                                                 
C 53.447219 45.765683 49.307400                                                 
C 54.846605 48.158840 42.880185                                                 
C 56.133843 45.773813 49.544103                                                 
C 57.571794 57.694312 30.089558                                                 
C 57.577904 57.570991 37.029350                                                 
C 58.904128 60.043883 29.747074                                                 
C 60.309088 57.532773 37.034728                                                 
C 57.545730 57.480933 43.095790                                                 
C 57.455210 57.448437 49.496095                                                 
C 58.885516 59.832844 43.221841                                                 
C 60.161886 57.438488 49.625750                                                 
C 45.421486 64.707881 30.125971                                                 
C 45.480584 64.606008 36.925869                                                 
C 46.780631 67.046808 30.071150                                                 
C 48.161274 64.608043 36.970691                                                 
C 49.461710 62.368786 30.055439                                                 
C 49.516719 62.260891 37.002110                                                 
C 50.818598 64.732775 29.759958                                                 
C 52.213626 62.252567 37.112307                                                 
C 45.425208 64.463643 42.887025                                                 
C 45.337590 64.369988 49.740839                                                 
C 46.811120 66.805360 42.659927                                                 
C 48.025230 64.376617 49.760522                                                 
C 49.477181 62.137357 43.052969                                                 
C 49.388103 62.058170 49.507604                                                 
C 50.850792 64.492488 43.045579                                                 
C 52.072878 62.075553 49.480660                                                 
C 53.526542 60.038586 30.097196                                                 
C 53.544181 59.916062 37.050965                                                 
C 54.874752 62.398425 29.849384                                                 
C 56.244142 59.901865 37.145642                                                 
C 53.513583 59.806611 43.179642                                                 
C 53.421053 59.756339 49.367855                                                 
C 54.868775 62.164259 43.258485                                                 
C 56.112076 59.762415 49.413278                                                 
C 57.577586 53.061913 30.493311                                                 
C 57.566034 52.917562 36.767534                                                 
C 58.920310 55.384204 30.290343                                                 
C 60.291287 52.900346 36.718201                                                 
C 57.541477 52.820962 42.828729                                                 
C 57.452747 52.782533 49.685124                                                 
C 58.888328 55.171698 42.882628                                                 
C 60.168567 52.784960 50.014093                                                 
C 45.436167 60.042897 30.414533                                                 
C 45.468533 59.936414 36.888076                                                 
C 46.778668 62.375325 30.206739                                                 
C 48.162558 59.929883 36.901431                                                 
C 49.486821 57.725571 30.471542                                                 
C 49.502909 57.602486 36.884588                                                 
C 50.829190 60.047955 30.217580                                                 
C 52.195140 57.593774 36.927021                                                 
C 45.443259 59.804747 43.042285                                                 
C 45.346000 59.725172 49.316759                                                 
C 46.794256 62.135336 42.995083                                                 
C 48.037939 59.732666 49.335504                                                 
C 49.474324 57.477520 43.069345                                                 
C 49.390638 57.409466 49.222394                                                 
C 50.824226 59.810294 43.115375                                                 
C 52.077984 57.419086 49.276197                                                 
C 53.526356 55.394377 30.484062                                                 
C 53.533836 55.257449 36.873601                                                 
C 54.867799 57.720788 30.233984                                                 
C 56.228056 55.241140 36.873907                                                 
C 53.506596 55.148579 43.051711                                                 
C 53.427666 55.092921 49.300122                                                 
C 54.854342 57.483613 43.125655                                                 
C 56.119081 55.105089 49.484555                                                 
H 27.310223 41.317001 30.474194                                                 
H 28.283443 39.568434 36.431161                                                 
H 27.269092 41.140392 42.303408                                                 
H 28.224190 39.315200 49.965605                                                 
H 41.838874 30.336277 29.596238                                                 
C 42.872873 32.121551 29.728910                                                 
H 44.464856 30.215558 37.412025                                                 
H 41.764886 30.059143 43.223867                                                 
C 42.811549 31.845564 43.186673                                                 
H 44.427124 29.994657 49.227620                                                 
H 29.658819 37.270430 30.354857                                                 
C 30.672627 39.073404 30.398453                                                 
H 32.315209 37.244296 36.555000                                                 
H 33.709141 34.965544 30.206572                                                 
C 34.739558 36.759199 30.285886                                                 
H 29.585600 37.075514 42.437696                                                 
C 30.631623 38.860556 42.437475                                                 
H 32.300928 36.962585 49.931545                                                 
H 33.664876 34.683913 42.211842                                                 
C 34.700305 36.474633 42.350174                                                 
H 37.763454 32.651289 29.919189                                                 
C 38.790371 34.444547 30.029801                                                 
H 40.399119 32.560024 37.252574                                                 
H 37.751794 32.356368 42.861609                                                 
C 38.766456 34.161325 42.858424                                                 
H 40.411208 32.328524 49.271962                                                 
H 46.517876 30.344526 29.652158                                                 
H 46.448832 30.083830 43.242843                                                 
H 25.936726 48.273045 36.589144                                                 
C 28.007405 48.278871 36.607659                                                 
H 25.819727 48.051312 49.889221                                                 
C 27.885007 48.077169 49.828362                                                 
H 25.934897 43.614882 36.455180                                                 
H 27.300585 45.967355 30.553169                                                 
C 28.003946 43.600276 36.505423                                                 
H 25.853954 43.368676 49.985525                                                 
H 27.281242 45.814620 42.347688                                                 
C 27.920375 43.375135 49.879176                                                 
H 25.933493 57.613427 37.031646                                                 
H 27.233352 59.973464 29.896929                                                 
C 28.002376 57.621553 37.059301                                                 
H 25.819942 57.470254 49.414557                                                 
H 27.297390 59.836812 43.284609                                                 
C 27.889811 57.472776 49.436547                                                 
H 25.931148 52.949772 36.758193                                                 
H 27.243341 55.291575 30.262708                                                 
C 28.001593 52.949598 36.756596                                                 
H 25.810590 52.795445 50.073129                                                 
H 27.296601 55.196887 42.781693                                                 
C 27.880655 52.779241 49.945091                                                 
C 29.378101 41.302183 30.458917                                                 
C 29.296761 41.369732 36.489429                                                 
C 30.663671 43.693084 30.512629                                                 
C 32.009450 41.292906 36.552480                                                 
C 33.386847 39.013734 30.398561                                                 
C 33.351724 39.034318 36.575023                                                 
C 34.724441 41.380113 30.490223                                                 
C 36.027236 38.963592 36.663554                                                 
C 29.369409 45.977217 30.545242                                                 
C 29.294680 45.984894 36.574102                                                 
C 30.640695 48.334647 30.560970                                                 
C 32.012908 45.967769 36.624634                                                 
C 33.381874 43.688137 30.544689                                                 
C 33.351219 43.653650 36.617719                                                 
C 34.710805 46.031096 30.611036                                                 
C 36.042738 43.642511 36.687894                                                 
C 29.339436 41.116673 42.385940                                                 
C 29.245066 41.111928 49.875850                                                 
C 30.636015 43.498647 42.382888                                                 
C 31.944183 41.040744 49.777233                                                 
C 33.333409 38.768869 42.438167                                                 
C 33.326991 38.760253 49.805853                                                 
C 34.674276 41.133894 42.624093                                                 
C 36.009939 38.723748 49.821817                                                 
C 29.342806 45.817941 42.493941                                                 
C 29.189895 45.761619 49.780006                                                 
C 30.628231 48.155629 42.599417                                                 
C 31.918581 45.740964 49.623551                                                 
C 33.344985 43.468925 42.619676                                                 
C 33.275901 43.411944 49.628950                                                 
C 34.679690 45.820080 42.783970                                                 
C 35.981945 43.407789 49.458293                                                 
C 41.453380 39.088574 30.356550                                                 
C 41.412456 38.986798 36.881190                                                 
C 42.801223 41.415117 30.522537                                                 
C 44.096570 38.985331 36.942140                                                 
C 41.402766 38.819637 42.969803                                                 
C 41.394145 38.754736 49.321975                                                 
C 42.746505 41.158939 43.001725                                                 
C 44.067934 38.757505 49.183680                                                 
C 37.417598 41.385853 30.509687                                                 
C 37.383388 41.318308 36.707094                                                 
C 38.758774 43.723666 30.611785                                                 
C 40.070401 41.312008 36.789634                                                 
C 37.373088 41.139019 42.770453                                                 
C 37.346895 41.092256 49.558258                                                 
C 38.711444 43.478814 42.904571                                                 
C 40.025350 41.084332 49.350409                                                 
C 41.431724 34.422185 29.931169                                                 
C 41.432044 34.347968 37.134480                                                 
C 42.815036 36.772352 30.120687                                                 
C 44.073139 34.316053 37.295156                                                 
C 41.395882 34.150181 43.062486                                                 
C 41.440998 34.121332 49.287084                                                 
C 42.759784 36.496701 43.054220                                                 
C 44.072295 34.088454 49.216980                                                 
C 37.410726 36.714059 30.239783                                                 
C 37.392169 36.686562 36.769844                                                 
C 38.767215 39.070510 30.377068                                                 
C 40.040170 36.634729 36.913821                                                 
C 37.379836 36.428473 42.618301                                                 
C 37.399215 36.441637 49.680147                                                 
C 38.719804 38.806390 42.793812                                                 
C 40.059119 36.397150 49.422596                                                 
C 41.434414 48.390346 30.752022                                                 
C 41.423876 48.300303 36.823494                                                 
C 42.771827 50.725696 30.772752                                                 
C 44.111313 48.298365 36.838529                                                 
C 41.409899 48.148278 42.972963                                                 
C 41.336432 48.082473 49.045453                                                 
C 42.753130 50.478534 42.971348                                                 
C 44.027124 48.086062 49.034861                                                 
C 29.311438 55.300432 30.293886                                                 
C 29.289195 55.249945 36.894054                                                 
C 30.590764 57.604216 30.109008                                                 
C 32.004017 55.273664 36.916476                                                 
C 33.338833 53.001196 30.523611                                                 
C 33.349898 52.946802 36.804160                                                 
C 34.675944 55.326325 30.440997                                                 
C 36.048197 52.954647 36.831486                                                 
C 29.373880 55.182603 42.857115                                                 
C 29.177691 55.091885 49.629714                                                 
C 30.656265 57.487929 43.097511                                                 
C 31.890306 55.091348 49.413416                                                 
C 33.367335 52.834490 42.787091                                                 
C 33.235512 52.740522 49.376333                                                 
C 34.693724 55.154778 42.978495                                                 
C 35.930281 52.737705 49.175331                                                 
C 37.388503 50.700926 30.690856                                                 
C 37.390802 50.629148 36.800096                                                 
C 38.723740 53.034886 30.681375                                                 
C 40.081743 50.630120 36.824501                                                 
C 37.378516 50.480155 42.929424                                                 
C 37.282730 50.408546 49.119310                                                 
C 38.723814 52.811972 42.986656                                                 
C 39.980012 50.409433 49.051851                                                 
C 41.448086 43.735729 30.636511                                                 
C 41.419806 43.644896 36.809206                                                 
C 42.786766 46.068515 30.721327                                                 
C 44.104886 43.642236 36.837078                                                 
C 41.400757 43.484144 42.969657                                                 
C 41.356311 43.420549 49.166005                                                 
C 42.748817 45.816861 42.978972                                                 
C 44.048653 43.425803 49.085728                                                 
C 29.341035 50.643341 30.521441                                                 
C 29.289210 50.621398 36.673464                                                 
C 30.610913 52.976775 30.454577                                                 
C 32.008530 50.624953 36.709497                                                 
C 33.361653 48.344894 30.608608                                                 
C 33.352070 48.300022 36.691776                                                 
C 34.691666 50.683351 30.624328                                                 
C 36.047051 48.300565 36.749065                                                 
C 29.356817 50.495734 42.519860                                                 
C 29.167097 50.404629 49.841940                                                 
C 30.658737 52.840367 42.611118                                                 
C 31.896388 50.412283 49.544308                                                 
C 33.347583 48.153582 42.733290                                                 
C 33.253694 48.083831 49.428834                                                 
C 34.690888 50.487454 42.814413                                                 
C 35.943096 48.077323 49.226755                                                 
C 37.407485 46.044380 30.659206                                                 
C 37.389116 45.975225 36.749180                                                 
C 38.742593 48.379193 30.714460                                                 
C 40.078659 45.972431 36.796174                                                 
C 37.370751 45.815156 42.910113                                                 
C 37.303928 45.741580 49.239056                                                 
C 38.717235 48.146088 42.957464                                                 
C 39.996271 45.745359 49.129292                                                 
C 45.476067 32.126283 29.755400                                                 
C 45.505482 31.996886 37.275827                                                 
C 46.906940 34.433931 29.988334                                                 
C 48.087443 32.000567 37.092338                                                 
H 49.126680 30.211956 37.072701                                                 
H 50.570421 32.673434 30.104960                                                 
C 45.506838 36.779379 30.147392                                                 
C 45.458196 36.657956 37.076539                                                 
C 46.853940 39.102096 30.404770                                                 
C 48.135130 36.648200 36.972618                                                 
C 49.537281 34.464180 30.167371                                                 
C 49.509946 34.303610 36.976374                                                 
C 50.913867 36.747418 30.390550                                                 
C 52.141820 34.332409 36.874338                                                 
C 45.391694 31.860234 43.208963                                                 
C 45.485644 31.773591 49.222979                                                 
C 46.808456 34.169567 43.155457                                                 
C 48.065103 31.769798 49.248749                                                 
H 49.112226 29.984281 49.282338                                                 
H 50.468343 32.414613 43.137219                                                 
C 45.432241 36.507856 43.110755                                                 
C 45.432593 36.431293 49.179440                                                 
C 46.785931 38.834674 43.068517                                                 
C 48.107002 36.430717 49.183445                                                 
C 49.436104 34.204942 43.115095                                                 
C 49.479200 34.083300 49.231091                                                 
C 50.826615 36.485106 43.049919                                                 
C 52.109957 34.117190 49.267893                                                 
H 53.172732 32.537338 36.878114                                                 
H 53.144506 32.326085 49.295988                                                 
C 57.604961 39.148820 30.598529                                                 
C 57.538482 38.924184 36.693878                                                 
C 58.942482 41.408050 30.591788                                                 
C 60.248771 38.989017 36.623047                                                 
C 57.517143 38.854229 42.813102                                                 
C 57.481982 38.727597 49.528090                                                 
C 58.866305 41.116885 42.690942                                                 
C 60.178281 38.804153 49.727217                                                 
C 45.477628 46.076377 30.736617                                                 
C 45.452133 45.969344 36.838311                                                 
C 46.815982 48.407600 30.771611                                                 
C 48.139933 45.964625 36.835331                                                 
C 49.519623 43.755201 30.681419                                                 
C 49.480865 43.632604 36.826450                                                 
C 50.857895 46.084632 30.724080                                                 
C 52.167460 43.626349 36.790073                                                 
C 45.434849 45.822817 42.976713                                                 
C 45.384997 45.759562 49.044668                                                 
C 46.779658 48.154518 42.965847                                                 
C 48.074699 45.761493 49.077280                                                 
C 49.467645 43.498591 42.988116                                                 
C 49.426543 43.431567 49.129553                                                 
C 50.811694 45.826311 42.965999                                                 
C 52.111157 43.432728 49.236815                                                 
C 53.564661 41.432754 30.627694                                                 
C 53.510263 41.288955 36.768538                                                 
C 54.902063 43.757359 30.656940                                                 
C 56.199522 41.288402 36.713817                                                 
C 53.496477 41.166144 42.939686                                                 
C 53.456357 41.091487 49.302650                                                 
C 54.833504 43.490398 42.877176                                                 
C 56.138530 41.092818 49.496352                                                 
H 57.223324 34.870793 36.733880                                                 
H 58.643537 37.359827 30.603650                                                 
H 57.182043 34.664493 49.414011                                                 
H 58.551266 37.063849 42.776308                                                 
C 45.491586 41.422376 30.544896                                                 
C 45.448668 41.313034 36.871017                                                 
C 46.831161 43.750998 30.670713                                                 
C 48.134851 41.307389 36.856862                                                 
C 49.537573 39.098937 30.478694                                                 
C 49.482940 38.974161 36.867025                                                 
C 50.875634 41.424027 30.612081                                                 
C 52.166439 38.967611 36.806819                                                 
C 45.434984 41.166483 43.031573                                                 
C 45.405285 41.096916 49.110099                                                 
C 46.779843 43.494626 43.000509                                                 
C 48.090059 41.098107 49.123238                                                 
C 49.464992 38.837193 43.040941                                                 
C 49.444813 38.761506 49.173915                                                 
C 50.812043 41.164235 42.995062                                                 
C 52.125030 38.761705 49.243781                                                 
C 53.566728 36.800985 30.498926                                                 
C 53.522869 36.613074 36.803929                                                 
C 54.926388 39.078561 30.583047                                                 
C 56.189733 36.664485 36.741944                                                 
C 53.477220 36.531195 42.989238                                                 
C 53.482959 36.403676 49.289278                                                 
C 54.848963 38.799962 42.923325                                                 
C 56.143474 36.456170 49.392501                                                 
H 61.264930 37.186752 36.599264                                                 
H 62.673338 39.681470 30.567105                                                 
H 61.206865 37.009004 49.689955                                                 
H 62.600497 39.405363 42.552503                                                 
H 28.262669 61.645352 37.482137                                                 
H 28.182648 61.500653 49.128156                                                 
C 29.300299 59.984545 29.897825                                                 
C 29.289364 59.859356 37.301332                                                 
C 30.595304 62.242718 29.732907                                                 
C 32.005168 59.939800 37.358211                                                 
C 33.324535 57.648568 30.185440                                                 
C 33.344317 57.588686 37.089793                                                 
C 34.658597 59.979886 30.029951                                                 
C 36.048011 57.614300 37.010162                                                 
H 29.559978 64.026682 29.594556                                                 
H 32.320231 64.005350 37.532893                                                 
C 33.310906 62.341625 29.768409                                                 
C 33.358074 62.227701 37.330557                                                 
C 34.647466 64.621029 29.646563                                                 
C 36.029665 62.298348 37.212203                                                 
C 29.365428 59.858164 43.260671                                                 
C 29.193758 59.698780 49.262865                                                 
C 30.651622 62.098933 43.323778                                                 
C 31.900937 59.764484 49.260001                                                 
C 33.358316 57.497966 43.096918                                                 
C 33.236667 57.400362 49.260327                                                 
C 34.694102 59.814932 43.216577                                                 
C 35.931177 57.403810 49.182542                                                 
H 29.625424 63.898149 43.371959                                                 
H 32.215712 63.821123 49.219531                                                 
C 33.354708 62.175766 43.300793                                                 
C 33.250629 62.027489 49.236748                                                 
C 34.705527 64.446551 43.296764                                                 
C 35.919727 62.085150 49.272305                                                 
C 41.401457 57.705909 30.534135                                                 
C 41.427057 57.614292 36.900686                                                 
C 42.739575 60.033412 30.403416                                                 
C 44.119400 57.614215 36.869852                                                 
C 41.415728 57.476628 43.074724                                                 
C 41.313776 57.395481 49.164907                                                 
C 42.757293 59.807994 43.075290                                                 
C 44.002050 57.399090 49.180050                                                 
C 37.358270 60.003519 30.179132                                                 
C 37.385327 59.937214 37.076588                                                 
C 38.687971 62.338961 30.016247                                                 
C 40.081433 59.944224 37.002643                                                 
C 37.383239 59.816961 43.186293                                                 
C 37.275586 59.724488 49.220718                                                 
C 38.723182 62.144367 43.196299                                                 
C 39.964873 59.729063 49.244910                                                 
C 41.419463 53.048633 30.734961                                                 
C 41.425807 52.955703 36.842129                                                 
C 42.757531 55.382296 30.680428                                                 
C 44.116640 52.954819 36.843707                                                 
C 41.413166 52.811168 42.998288                                                 
C 41.321158 52.736842 49.062334                                                 
C 42.756759 55.141655 43.023812                                                 
C 44.013289 52.740876 49.063631                                                 
C 37.370638 55.352054 30.543746                                                 
C 37.392957 55.281127 36.893680                                                 
C 38.707513 57.689901 30.440560                                                 
C 40.082193 55.286072 36.870508                                                 
C 37.386120 55.148254 43.035068                                                 
C 37.278712 55.066593 49.127895                                                 
C 38.729642 57.477181 43.107207                                                 
C 39.967919 55.066658 49.100160                                                 
C 41.364369 67.050214 29.926922                                                 
C 41.473058 66.914094 37.094525                                                 
C 42.775164 69.352679 30.070018                                                 
C 44.119591 66.941583 36.924154                                                 
C 41.370855 66.813921 43.046437                                                 
C 41.308460 66.688589 49.710613                                                 
C 42.791909 69.116325 42.899996                                                 
C 43.935919 66.716833 49.908399                                                 
H 37.664709 68.786833 29.664092                                                 
H 40.452562 68.711249 37.197494                                                 
H 37.712475 68.580183 43.187199                                                 
H 40.278697 68.481037 49.761331                                                 
C 41.384272 62.356232 30.158021                                                 
C 41.441586 62.269956 37.060760                                                 
C 42.740033 64.705428 30.068303                                                 
C 44.124483 62.273385 36.946468                                                 
C 41.404675 62.140235 43.115065                                                 
C 41.306498 62.054317 49.393286                                                 
C 42.750749 64.470370 43.020830                                                 
C 43.985587 62.047890 49.470141                                                 
H 33.602097 66.396063 29.466723                                                 
H 33.666210 66.237021 43.323208                                                 
C 37.313505 64.699940 29.757242                                                 
C 37.406095 64.579737 37.259192                                                 
C 38.697679 66.998506 29.765741                                                 
C 40.079583 64.632087 37.263876                                                 
C 37.363204 64.500567 43.237413                                                 
C 37.285908 64.361208 49.363873                                                 
C 38.742479 66.785564 43.171800                                                 
C 39.930996 64.408207 49.482448                                                 
C 61.658358 41.483027 30.563021                                                 
C 61.537104 41.221302 36.569945                                                 
C 62.947760 43.714669 30.543064                                                 
H 63.602758 41.239826 36.502474                                                 
C 61.651696 46.101472 30.562176                                                 
C 61.537900 45.898707 36.555338                                                 
C 62.935259 48.395504 30.533276                                                 
H 63.604552 45.893127 36.487064                                                 
H 65.016904 43.732034 30.523954                                                 
C 61.578731 41.200711 42.561731                                                 
C 61.464192 41.041786 49.988091                                                 
C 62.883692 43.451460 42.464845                                                 
H 63.525418 41.045402 50.165732                                                 
C 61.601142 45.848048 42.473186                                                 
C 61.462805 45.754293 50.066303                                                 
C 62.897405 48.148278 42.395730                                                 
H 63.520292 45.740878 50.288117                                                 
H 64.948815 43.450247 42.366944                                                 
C 61.636926 55.366845 30.264877                                                 
C 61.586244 55.230285 36.835812                                                 
C 62.917307 57.739382 30.067425                                                 
H 63.654267 55.227119 36.829722                                                 
H 65.001488 53.073270 30.398491                                                 
C 61.609222 55.161699 42.726796                                                 
C 61.452865 55.137178 49.876946                                                 
C 62.896223 57.538016 42.918956                                                 
H 63.518219 55.151342 50.020272                                                 
H 64.964465 52.855192 42.365709                                                 
C 61.646849 50.740030 30.510087                                                 
C 61.560227 50.568806 36.609943                                                 
C 62.931565 53.067669 30.409060                                                 
H 65.006124 48.395148 30.509076                                                 
C 61.616657 50.487647 42.475520                                                 
C 61.465585 50.441173 50.058804                                                 
C 62.900956 52.844211 42.506711                                                 
H 64.960023 48.137340 42.234390                                                 
H 41.733107 71.139147 30.105683                                                 
H 44.485228 71.018673 36.738288                                                 
H 41.751402 70.905617 42.917587                                                 
H 44.327103 70.807623 50.253980                                                 
C 45.365661 69.345642 30.153490                                                 
C 45.533037 69.237875 36.812001                                                 
H 46.407772 71.128871 30.261671                                                 
C 48.123027 69.250644 36.855494                                                 
C 49.430982 67.014451 29.924494                                                 
C 49.537122 66.955366 37.018101                                                 
H 50.457270 68.810090 29.864248                                                 
C 52.202446 66.912697 37.157397                                                 
H 49.159667 71.039564 36.811009                                                 
C 45.373935 69.122211 42.677786                                                 
C 45.368305 69.024001 50.154105                                                 
H 46.408787 70.906163 42.515601                                                 
C 47.972560 69.029716 50.178149                                                 
C 49.454978 66.776844 42.834860                                                 
C 49.414208 66.726972 49.959141                                                 
H 50.482659 68.569852 42.734814                                                 
C 52.050115 66.706683 49.838751                                                 
H 49.005977 70.816937 50.310514                                                 
H 57.297633 66.330433 37.470840                                                 
H 57.128485 66.180835 49.579074                                                 
H 53.230909 68.705689 37.195347                                                 
H 53.076098 68.500757 49.952114                                                 
C 57.547032 62.328709 29.732342                                                 
C 57.589467 62.270847 37.320357                                                 
H 58.582904 64.107446 29.532193                                                 
C 60.304841 62.173756 37.358287                                                 
C 57.538474 62.094334 43.326628                                                 
C 57.451175 62.122302 49.440475                                                 
H 58.574585 63.881314 43.414201                                                 
C 60.156139 62.050743 49.427299                                                 
C 53.496266 64.676625 29.749736                                                 
C 53.587871 64.620831 37.251493                                                 
C 56.253218 64.549561 37.351535                                                 
C 53.497612 64.442267 43.198678                                                 
C 53.434331 64.433059 49.607035                                                 
C 56.095356 64.388241 49.527398                                                 
C 61.622166 59.972427 29.799355                                                 
C 61.598037 59.915844 37.224371                                                 
H 62.647451 61.760542 29.624341                                                 
H 63.664193 59.901959 37.244498                                                 
H 64.985849 57.739291 30.111868                                                 
H 61.340106 63.958104 37.491720                                                 
C 61.592106 59.754464 43.176567                                                 
C 61.452897 59.814376 49.511209                                                 
H 62.610567 61.547937 43.318057                                                 
H 63.520957 59.801497 49.510969                                                 
H 64.964054 57.538789 42.844374                                                 
H 61.179745 63.847077 49.366422                                                 
H 63.522549 50.442017 50.286327                                                 
H 36.379910 34.634613 49.807934                                                 
H 36.251243 66.149830 49.372127                                                 
H 27.290624 50.508346 42.301527                                                 
H 54.532255 66.232405 43.210118                                                 
H 63.627397 50.560813 36.561751                                                 
H 54.506967 34.740029 42.981060                                                 
H 36.352931 34.899700 36.809026                                                 
H 36.379223 66.364380 37.450694                                                 
H 54.524390 66.461970 29.573044                                                 
H 27.272867 50.630361 30.507928                                                 
H 54.604801 35.012182 30.477851                                                 
Li 58.996862 60.126554 33.686178                                                
Li 30.361057 43.336266 46.288225                                                
Li 44.158487 34.176872 33.402863                                                
Li 46.651114 67.004452 46.516344                                                
Li 60.374265 43.555763 46.097353                                                
Li 31.897641 60.237314 33.445180                                                
Li 51.133039 64.753390 33.628050                                                
Li 39.744555 64.994924 33.404621                                                
Li 60.596895 52.640840 46.138725                                                
Li 28.819525 52.453497 46.105841                                                
Li 35.169162 37.384456 46.197454                                                
Li 55.491120 36.994080 45.992640                                                
%ENDBLOCK POSITIONS_ABS                                                         

--------------------------------------------------------------------------------
-------------------------------- END INPUT FILE --------------------------------
--------------------------------------------------------------------------------


 
<<<<<<<<<<<<<<<<<<<<<<<<<<<<<<<<< Full system >>>>>>>>>>>>>>>>>>>>>>>>>>>>>>>>>>
<<<<<<<<<<<<<<<<<<<<<<<<<<< PAW Dataset information >>>>>>>>>>>>>>>>>>>>>>>>>>>
File: ~/pp/paw/c_pbe_abinit.paw; rc = 1.25 bohr; shape type =  3; rshape = 1.25 bohr;
  Atomic number:  6;  ionic charge:  4.000000
    Partial Wave 1: l = 0
    Partial Wave 2: l = 0
    Partial Wave 3: l = 1
    Partial Wave 4: l = 1
  Core charge supplied for Nonlinear Core Corrections
File: ~/pp/paw/h_pbe_abinit.paw; rc = 0.90 bohr; shape type =  3; rshape = 0.90 bohr;
  Atomic number:  1;  ionic charge:  1.000000
    Partial Wave 1: l = 0
    Partial Wave 2: l = 0
File: ~/pp/paw/li_pbe_abinit.paw; rc = 1.42 bohr; shape type =  3; rshape = 1.42 bohr;
  Atomic number:  3;  ionic charge:  3.000000
    Partial Wave 1: l = 0
    Partial Wave 2: l = 0
    Partial Wave 3: l = 0
    Partial Wave 4: l = 1
    Partial Wave 5: l = 1
<<<<<<<<<<<<<<<<<<<<<<<<<<<<<<<<<<<<<<< >>>>>>>>>>>>>>>>>>>>>>>>>>>>>>>>>>>>>>>

-------------------------- Atom counting information ---------------------------
Symbol    Natoms    Nngwfs    Nprojs
  C        484      1936      3872
  H        108       108       216
  Li        12        60       108
.......   ......    ......    ......
Totals:    604      2104      4196
--------------------------------------------------------------------------------

=============================== PSINC grid sizes ===============================
                      Simulation cell:  189 x 189 x 189
                              FFT-box:  117 x 117 x 117
                                  PPD:    7 x   7 x   1
Grid space d1=  0.499927596032a0 (KE cutoff=  30.39413Eh = 827.06648eV)
Grid space d2=  0.499927596032a0 (KE cutoff=  30.39413Eh = 827.06648eV)
Grid space d3=  0.499927596032a0 (KE cutoff=  30.39413Eh = 827.06648eV)
================================================================================
  
WARNING in cell_grid_distribute:
Average of less than one 23-slab per node, so workload cannot be
equally balanced between nodes.

********************* Fourier parallelisation information **********************
       Coarse grid (whole simulation cell) dimensions:    189   189   189
          Real-space ('12') slabs/node (min max mean):      1     2     1
         Recip-space ('23') slabs/node (min max mean):      0     1     0
********************************************************************************

********************* Fourier parallelisation information **********************
       Double grid (whole simulation cell) dimensions:    378   378   378
          Real-space ('12') slabs/node (min max mean):      2     3     2
         Recip-space ('23') slabs/node (min max mean):      1     2     1
********************************************************************************

Atom SCF Calculation for C  : Z (AE atom) =   6 : Z (PS atom) =   4
Config String: 2s2 2p2
Orbitals (num,occ):  2     2.00 2.00
Orbitals   (num,l):  2        0    1
Real-space Grid (nr,dr,rmax): 1377    0.0065406977    9.0000000000
Spherical Bessel Basis (nsws,lmax,cutoff):   37    2  183.0099912382
Confining potential (l,width,scale):  0    3.0000000000  100.0000000000
Confining potential (l,width,scale):  1    3.0000000000  100.0000000000
  1         -5.4350126632   -1.2715272878    4.5135247139   -1.5681949477
  2         -5.3876836850   -1.3562195125    4.4235426751   -1.5380057521
  3         -5.3928844498   -1.3758175853    4.4021699684   -1.5318377811
  4         -5.3988962903   -1.3800385428    4.3975423583   -1.5307324410
  5         -5.4018428823   -1.3823489590    4.3950111904   -1.5301555648
  6         -5.4033571720   -1.3835805046    4.3936635548   -1.5298576834
  7         -5.4041480647   -1.3842324820    4.3929512000   -1.5297032953
  8         -5.4045641108   -1.3845769138    4.3925755232   -1.5296229456
  9         -5.4047838258   -1.3847587737    4.3923775340   -1.5295810042
 10         -5.4049001347   -1.3848548089    4.3922731819   -1.5295590658
 11         -5.4049618018   -1.3849055476    4.3922181562   -1.5295475724
 12         -5.4049945351   -1.3849323732    4.3921891206   -1.5295415432
 13         -5.4050119258   -1.3849465673    4.3921737867   -1.5295383767
 14         -5.4050211723   -1.3849540841    4.3921656816   -1.5295367119
 15         -5.4050260920   -1.3849580684    4.3921613935   -1.5295358358
 16         -5.4050287113   -1.3849601822    4.3921591228   -1.5295353742
 17         -5.4050301068   -1.3849613045    4.3921579192   -1.5295351307
 18         -5.4050308507   -1.3849619010    4.3921572806   -1.5295350022
 19         -5.4050312476   -1.3849622183    4.3921569415   -1.5295349343
 20         -5.4050314594   -1.3849623873    4.3921567612   -1.5295348984
 21         -5.4050315725   -1.3849624773    4.3921566653   -1.5295348794
 22         -5.4050316330   -1.3849625253    4.3921566143   -1.5295348693
Atom SCF converged after  22 iterations to a total energy of     -5.40503163

Atom SCF Calculation for H  : Z (AE atom) =   1 : Z (PS atom) =   1
Config String: 1s1
Orbitals (num,occ):  1     1.00
Orbitals   (num,l):  1        0
Real-space Grid (nr,dr,rmax): 1377    0.0065406977    9.0000000000
Spherical Bessel Basis (nsws,lmax,cutoff):   37    1  183.0099912382
Confining potential (l,width,scale):  0    3.0000000000  100.0000000000
  1         -0.3605254152   -0.2399954029    0.2820952946   -0.2424203210
  2         -0.4156854077   -0.2398249290    0.2871789324   -0.2464796203
  3         -0.4412552402   -0.2379720642    0.2899127187   -0.2499011370
  4         -0.4517265951   -0.2371980236    0.2908966173   -0.2514141636
  5         -0.4557775773   -0.2369735141    0.2911607883   -0.2519713623
  6         -0.4573363459   -0.2369240355    0.2912108681   -0.2521663171
  7         -0.4579443228   -0.2369187864    0.2912112833   -0.2522344454
  8         -0.4581858602   -0.2369215483    0.2912049187   -0.2522587615
  9         -0.4582834939   -0.2369242589    0.2912002081   -0.2522677042
 10         -0.4583235236   -0.2369258837    0.2911975892   -0.2522710965
 11         -0.4583401154   -0.2369267223    0.2911962825   -0.2522724192
 12         -0.4583470483   -0.2369271266    0.2911956643   -0.2522729467
 13         -0.4583499624   -0.2369273145    0.2911953803   -0.2522731607
 14         -0.4583511926   -0.2369274000    0.2911952521   -0.2522732486
 15         -0.4583517136   -0.2369274385    0.2911951948   -0.2522732850
 16         -0.4583519349   -0.2369274556    0.2911951693   -0.2522733002
 17         -0.4583520290   -0.2369274632    0.2911951581   -0.2522733066
Atom SCF converged after  17 iterations to a total energy of     -0.45835203

Atom SCF Calculation for Li : Z (AE atom) =   3 : Z (PS atom) =   3
Config String: 1s2 2s1 2p0
Orbitals (num,occ):  3     2.00 1.00 0.00
Orbitals   (num,l):  3        0    0    1
Real-space Grid (nr,dr,rmax): 1377    0.0065406977    9.0000000000
Spherical Bessel Basis (nsws,lmax,cutoff):   37    2  183.0099912382
Confining potential (l,width,scale):  0    3.0000000000  100.0000000000
Confining potential (l,width,scale):  1    3.0000000000  100.0000000000
  1         -6.0640888065   -4.6655401716    2.5388576516   -0.9989538799
  2         -6.9627542978   -4.0954079129    2.9808988108   -1.1965571426
  3         -7.2692687601   -3.8889996707    3.2029735703   -1.3193883705
  4         -7.3784440298   -3.8322099748    3.2868571989   -1.3711018151
  5         -7.4170278248   -3.8191968371    3.3144974220   -1.3911175539
  6         -7.4303549880   -3.8172386945    3.3228486489   -1.3986896266
  7         -7.4348052089   -3.8175483495    3.3251259310   -1.4015352495
  8         -7.4362242328   -3.8180607346    3.3256233205   -1.4026016384
  9         -7.4366459715   -3.8184145665    3.3256561549   -1.4029998726
 10         -7.4367560626   -3.8186169740    3.3256001574   -1.4031477379
 11         -7.4367765260   -3.8187239825    3.3255481763   -1.4032021548
 12         -7.4367751741   -3.8187782620    3.3255144587   -1.4032219192
 13         -7.4367707398   -3.8188051288    3.3254952336   -1.4032289600
 14         -7.4367680349   -3.8188156035    3.3254870176   -1.4032309087
 15         -7.4367661982   -3.8188217406    3.3254819951   -1.4032318132
 16         -7.4367650112   -3.8188253257    3.3254789583   -1.4032322224
 17         -7.4367642682   -3.8188274151    3.3254771375   -1.4032324006
 18         -7.4367638134   -3.8188286307    3.3254760529   -1.4032324736
 19         -7.4367635392   -3.8188293370    3.3254754103   -1.4032325004
 20         -7.4367633760   -3.8188297469    3.3254750310   -1.4032325080
 21         -7.4367632796   -3.8188299846    3.3254748079   -1.4032325082
Atom SCF converged after  21 iterations to a total energy of     -7.43676328

Determining parallel strategy ...
... using space-filling curve
... NGWF load balancing: max     16;  min     12;  average     13
... Projector load balancing: max     32;  min     24;  average     26
... done
Calculating Ewald energy ...
              Ewald: real-space energy =   35804.620937
        Ewald: reciprocal-space energy =   34311.516492
         Ewald: (sum_charge)**2 Energy =    2708.416474
         Ewald: (sum_charge**2) Energy =     244.934696
                          Ewald Energy =   67162.786259
======================= Empirical dispersion information =======================
Model : Grimme D2
Dispersion Correction Energy: -0.19333203E+01 Hartree
================================================================================
Basis initialisation ...... NGWF spheres initialised
... Projector spheres initialised
... NGWF tight boxes initialised
... Projector tight boxes initialised
... Tight-boxes gathered
... NGWF basis size (local,global):     264539  42459944
... PAW projector initialisation
... done

============================= Charge Augmentation ==============================
                           Aug box size:   13 x  13 x  13
================================================================================

========================== Sparse matrix information ===========================
                        Overlap matrix filling:  38.83%
                        Density kernel filling: 100.00%
              NGWF-Proj overlap matrix filling:  11.00%
                    Aug Overlap matrix filling:  42.98%
                    Hamiltonian matrix filling:  42.98%
                  NGWF diagonal matrix filling:   0.18%
                             KS matrix filling: 100.00% 
                           KSKS matrix filling: 100.00% 
================================================================================

Sparse matrix initialisation ... done
NGWF initialisation ...... done
============ Calculation of NGWF S^-1 using Hotelling algorithm ================ 
         Iteration  |  Frobenius norm and Maximum abs value    (of I-S*S_n^-1)   
               1       0.45481557E+02     0.99543862E+00
               2       0.45116735E+02     0.99091469E+00
               3       0.44448602E+02     0.98197470E+00
               4       0.43314857E+02     0.96449826E+00
               5       0.41608883E+02     0.93100010E+00
               6       0.39379737E+02     0.86887496E+00
               7       0.36722841E+02     0.77750552E+00
               8       0.33718660E+02     0.75499947E+00
               9       0.30660067E+02     0.74073155E+00
              10       0.27730791E+02     0.72665844E+00
              11       0.24483245E+02     0.70271416E+00
              12       0.20254090E+02     0.66847689E+00
              13       0.14727836E+02     0.61646124E+00
              14       0.85153925E+01     0.53016384E+00
              15       0.33883366E+01     0.39758056E+00
              16       0.79320655E+00     0.22804097E+00
              17       0.13485338E+00     0.76930436E-01
              18       0.13578957E-01     0.89193148E-02
              19       0.18251355E-03     0.12048100E-03
              20       0.33310696E-07     0.21989219E-07
              21       0.44169023E-13     0.35527137E-14
================================================================================
Calculating core density ...
================================= Core Density =================================
               Core den box size:   21 x  21 x  21
================================================================================
 ... done
Up spin density kernel initialisation ...... done
Down spin density kernel initialisation ...... done

Writing density kernel to file "12/592nano.dkn" ... done

>>> Optimising kernel for current NGWFs:

--------------------------- Ensemble-DFT optimisation --------------------------
Running ScaLAPACK on  160 processor(s).
(P)DSYGVX in subroutine dense_eigensolve returned info=    2
 ifail=           0           0
 iclustr=         500         524
 gap=  6.304873847077976E-005  4.551204718700337E-005
(P)DSYGVX in subroutine dense_eigensolve returned info=    2
 ifail=           0           0
 iclustr=         500         524
 gap=  6.304873847070703E-005  4.551204718701467E-005

--------------------------------------------------------------------------------
  Iter                              Commutator    Free_energy(A=E-TS)     DeltaA
#    0                          0.000902630621   -2905.61368439774606  -2.91E+03

Step                       =       0.381966011250
Energy                     =   -2905.581188395438
Entropy (-TS)              =      -0.032496002692
Free energy (A=E-TS)       =   -2905.613684397746
Est. 0K Energy 0.5*(E+A)   =   -2905.597436396592
Residual Non-orthogonality =       0.000000000000
Residual N_electrons       =       0.000000000384

Spin          Integrated_Ne            Fermi_level     Delta_Fermi_level
   1      1040.000000000766        -0.250722542112             -2.51E-01
   2      1040.000000000766        -0.250722542112             -2.51E-01

                           Spin 1           |                 Spin 2           |
     Orb |    H-eigenvalues     Occupancies |    H-eigenvalues     Occupancies |
       1 |    -1.8930893993    1.0000000000 |    -1.8930893993    1.0000000000 | 
                          ------                             ------
    1036 |    -0.2627388173    0.9779994093 |    -0.2627388173    0.9779994093 | 
    1037 |    -0.2577342977    0.9015118895 |    -0.2577342977    0.9015118895 | 
    1038 |    -0.2552765547    0.8081514945 |    -0.2552765547    0.8081514945 | 
    1039 |    -0.2523168882    0.6232708553 |    -0.2523168882    0.6232708553 | 
    1040 |    -0.2511415960    0.5330335046 |    -0.2511415960    0.5330335046 | 
                 - Gap at zero temperature - |     - Gap at zero temperature -
    1041 |    -0.2488439166    0.3558956783 |    -0.2488439166    0.3558956783 | 
    1042 |    -0.2482312311    0.3128790056 |    -0.2482312311    0.3128790056 | 
    1043 |    -0.2454337591    0.1584154231 |    -0.2454337591    0.1584154231 | 
    1044 |    -0.2450353873    0.1423555854 |    -0.2450353873    0.1423555854 | 
    1045 |    -0.2432626556    0.0866180480 |    -0.2432626556    0.0866180480 | 
                          ------                             ------
    2104 |     0.5646107343    0.0000000000 |     0.5646107343    0.0000000000 | 

                       |  Abs_value |  Threshold | Converged
     Delta_Free_energy |   2.91E+03 |   1.00E-06 |        No
     Delta_Energy      |   2.91E+03 |   1.00E-04 |        No
     Delta_Entropy     |   3.25E-02 |   1.00E-04 |        No
     Commutator        |   9.03E-04 |   1.00E-05 |        No
     Delta_Fermi_level |   2.51E-01 |   1.00E-03 |        No

  Line search of the free energy minimum:
  Step_type        Step             Free_energy   Predicted_free_energy
.   Initial    0.000000    -2905.61368439774606
.    Trial1    0.381966    -2905.56993170908936
.    Trial2    0.145898    -2906.00752485577777
. Quadratic    0.186178    -2906.02546255314473    -2906.02686530652500

--------------------------------------------------------------------------------
  Iter                              Commutator    Free_energy(A=E-TS)     DeltaA
#    1                          0.000582496186   -2906.02546255314473  -4.12E-01

Step                       =       0.186178288209
Energy                     =   -2905.993063920322
Entropy (-TS)              =      -0.032398632560
Free energy (A=E-TS)       =   -2906.025462553145
Est. 0K Energy 0.5*(E+A)   =   -2906.009263236733
Residual Non-orthogonality =       0.000000000000
Residual N_electrons       =      -0.000000000262

Spin          Integrated_Ne            Fermi_level     Delta_Fermi_level
   1      1039.999999999443        -0.235992705474              1.47E-02
   2      1039.999999999444        -0.235992705446              1.47E-02

                           Spin 1           |                 Spin 2           |
     Orb |    H-eigenvalues     Occupancies |    H-eigenvalues     Occupancies |
       1 |    -1.9073625715    1.0000000000 |    -1.9073625714    1.0000000000 | 
                          ------                             ------
    1036 |    -0.2460557444    0.9599847397 |    -0.2460557444    0.9599847397 | 
    1037 |    -0.2419644914    0.8682691522 |    -0.2419644914    0.8682691521 | 
    1038 |    -0.2400938443    0.7849985782 |    -0.2400938443    0.7849985782 | 
    1039 |    -0.2394463006    0.7484869925 |    -0.2394463005    0.7484869925 | 
    1040 |    -0.2360293947    0.5028963512 |    -0.2360293946    0.5028963512 | 
                 - Gap at zero temperature - |     - Gap at zero temperature -
    1041 |    -0.2343563799    0.3736216854 |    -0.2343563799    0.3736216855 | 
    1042 |    -0.2332542600    0.2963514906 |    -0.2332542599    0.2963514906 | 
    1043 |    -0.2309869504    0.1706974302 |    -0.2309869504    0.1706974302 | 
    1044 |    -0.2299920569    0.1306918933 |    -0.2299920569    0.1306918933 | 
    1045 |    -0.2290785514    0.1012586381 |    -0.2290785513    0.1012586381 | 
                          ------                             ------
    2104 |     0.5809795822    0.0000000000 |     0.5809795822    0.0000000000 | 

                       |  Abs_value |  Threshold | Converged
     Delta_Free_energy |   4.12E-01 |   1.00E-06 |        No
     Delta_Energy      |   4.12E-01 |   1.00E-04 |        No
     Delta_Entropy     |   9.74E-05 |   1.00E-04 |       Yes
     Commutator        |   5.82E-04 |   1.00E-05 |        No
     Delta_Fermi_level |   1.47E-02 |   1.00E-03 |        No

  Line search of the free energy minimum:
  Step_type        Step             Free_energy   Predicted_free_energy
.   Initial    0.000000    -2906.02546255314473
.    Trial1    0.186178    -2905.80753996604790
.    Trial2    0.071114    -2906.17931616963642
. Quadratic    0.072891    -2906.17901849418740    -2906.17940764529476
.     Cubic    0.069226    -2906.17940338164544    -2906.17942390428379

--------------------------------------------------------------------------------
  Iter                              Commutator    Free_energy(A=E-TS)     DeltaA
[...]
 C   226 -- C   304       -0.10     -0.00      5.39523
 C   272 -- C   306       -0.09      0.00      5.39525
 C    85 -- C    95       -0.09     -0.00      5.39558
 C    62 -- C   368       -0.09     -0.00      5.39579
 C    97 -- C   123       -0.09     -0.00      5.39586
 C   262 -- C   460       -0.09     -0.00      5.39602
 C    73 -- C   433       -0.09     -0.00      5.39632
 C   248 -- C   298       -0.09      0.00      5.39638
 C    36 -- C    50       -0.09     -0.00      5.39644
 C    37 -- C   367       -0.09      0.00      5.39657
 C   105 -- C   111       -0.10      0.00      5.39662
 C    69 -- C    95       -0.10     -0.00      5.39686
 C   105 -- C   477       -0.09     -0.00      5.39706
 C    49 -- C   391       -0.09      0.00      5.39726
 C    99 -- C   121       -0.09     -0.00      5.39744
 C   233 -- C   239       -0.09      0.00      5.39801
 C   257 -- C   439       -0.09      0.00      5.39811
 C   199 -- C   241       -0.08      0.00      5.39825
 C   197 -- C   295       -0.09     -0.00      5.39850
 C   422 -- C   430       -0.09     -0.00      5.39872
 C   206 -- C   304       -0.09     -0.00      5.39906
 C    64 -- C   366       -0.09     -0.00      5.39920
 C   186 -- C   192       -0.09      0.00      5.39998
 C   209 -- C   223       -0.09     -0.00      5.40064
 C   211 -- C   315       -0.09     -0.00      5.40079
 C    86 -- C   482       -0.09      0.00      5.40266
 C   272 -- C   294       -0.10     -0.00      5.40308
 C   293 -- C   295       -0.09      0.00      5.40470
 C   293 -- C   421       -0.09      0.00      5.40527
 C   229 -- C   235       -0.09      0.00      5.40594
 C    38 -- C    56       -0.09     -0.00      5.40633
 C   234 -- C   332       -0.10      0.00      5.40693
 C   198 -- C   224       -0.09     -0.00      5.40739
 C   202 -- C   216       -0.09     -0.00      5.40745
 C   285 -- C   407       -0.09      0.00      5.40942
 C    73 -- C    79       -0.09     -0.00      5.40957
 C   201 -- C   303       -0.09     -0.00      5.40990
 C    66 -- C   100       -0.09      0.00      5.41056
 C    53 -- C   395       -0.09     -0.00      5.41147
 C    84 -- C   567       -0.09     -0.00      5.41157
 C    74 -- C   488       -0.09      0.00      5.41163
 C    80 -- C   538       -0.08     -0.00      5.41192
 C    39 -- C   516       -0.08     -0.00      5.41223
 C   313 -- C   319       -0.09     -0.00      5.41259
 C   260 -- C   294       -0.08     -0.00      5.41270
 C   261 -- C   427       -0.09     -0.00      5.41283
 C    82 -- C   492       -0.09      0.00      5.41290
 C   231 -- C   323       -0.09      0.00      5.41341
 C   210 -- C   296       -0.09     -0.00      5.41383
 C   416 -- C   476       -0.09     -0.00      5.41411
 C    55 -- C   525       -0.09     -0.00      5.41442
 C    72 -- C   560       -0.09      0.00      5.41483
 C   181 -- C   183       -0.09      0.00      5.41526
 C    52 -- C   338       -0.09     -0.00      5.41573
 C    92 -- C   564       -0.09      0.00      5.41624
 C   440 -- C   488       -0.09     -0.00      5.41626
 C    38 -- C   104       -0.09     -0.00      5.41699
 C    77 -- C    91       -0.08     -0.00      5.41704
 C   205 -- C   207       -0.09     -0.00      5.41723
 C    75 -- C   463       -0.10      0.00      5.41818
 C   466 -- C   538       -0.09      0.00      5.41836
 C   441 -- C   463       -0.08     -0.00      5.41913
 C   206 -- C   292       -0.09     -0.00      5.41924
 C   339 -- C   497       -0.09      0.00      5.41931
 C    70 -- C   104       -0.09     -0.00      5.42021
 C    40 -- C   102       -0.08     -0.00      5.42044
 C   238 -- C   314       -0.09     -0.00      5.42052
 C   182 -- C   188       -0.09      0.00      5.42081
 C   260 -- C   420       -0.09      0.00      5.42088
 C   409 -- C   485       -0.09      0.00      5.42234
 C   408 -- C   416       -0.09     -0.00      5.42282
 C   224 -- C   242       -0.09     -0.00      5.42389
 C    40 -- C    54       -0.09     -0.00      5.42488
 C   205 -- C   263       -0.09     -0.00      5.42491
 C    65 -- C    91       -0.09     -0.00      5.42774
 C   201 -- C   239       -0.08     -0.00      5.42781
 C    81 -- C    87       -0.08      0.00      5.42798
 C    79 -- C    89       -0.08     -0.00      5.42974
 C    71 -- C   516       -0.09     -0.00      5.42985
 C   202 -- C   208       -0.09     -0.00      5.43059
 C   368 -- Li  604       -0.07     -0.00      5.43091
 C    76 -- C   564       -0.08     -0.00      5.43387
 C   477 -- C   485       -0.08     -0.00      5.43544
 C   103 -- C   525       -0.08     -0.00      5.43598
 C   262 -- C   292       -0.08      0.00      5.43736
 H   589 -- Li  600       -0.03      0.00      5.43798
 C   252 -- C   406       -0.09      0.00      5.43936
 C    56 -- C   342       -0.09      0.00      5.44148
 C    67 -- C   511       -0.09     -0.00      5.44160
 C   197 -- C   199       -0.09     -0.00      5.44516
 C   230 -- C   318       -0.08      0.00      5.44616
 C    83 -- C   467       -0.08      0.00      5.45398
 C   224 -- Li  603       -0.07      0.00      5.45759
 C   198 -- C   204       -0.08      0.00      5.46560
 H   519 -- Li  601       -0.02      0.00      5.46838
 C   343 -- C   506       -0.08      0.00      5.46906
 C    68 -- C   556       -0.08      0.00      5.47058
 C   253 -- C   413       -0.08      0.00      5.47341
 C   227 -- C   309       -0.07      0.00      5.47553
 C   470 -- C   547       -0.07      0.00      5.47853
 H   131 -- Li  594       -0.02      0.00      5.50099
 C   264 -- Li  602       -0.06      0.00      5.50268
 C   334 -- Li  604       -0.07      0.00      5.51689
 H   581 -- Li  601       -0.02      0.00      5.53144
 C   333 -- Li  604       -0.05      0.00      5.53862
 C   223 -- Li  603       -0.06     -0.00      5.54061
 C   365 -- Li  604       -0.06      0.00      5.54123
 H   590 -- Li  599       -0.02      0.00      5.55550
 H   539 -- Li  599       -0.02      0.00      5.57492
 H   412 -- Li  598       -0.02      0.00      5.57549
 H   165 -- Li  594       -0.02      0.00      5.58170
 H   544 -- Li  596       -0.02      0.00      5.59357
 H   548 -- Li  596       -0.02      0.00      5.60635
 H   401 -- Li  598       -0.02      0.00      5.61183
 H   151 -- Li  595       -0.02      0.00      5.61848
 C   263 -- Li  602       -0.06      0.00      5.64286
 H   135 -- Li  595       -0.02     -0.00      5.64440
 C   366 -- Li  604       -0.05      0.00      5.64670
=============================================================


============== Orbital energy and occupancy information for spin 1 =============

      Total number of orbitals:    2104
        Occupancy sum (kernel):    1039.999999954
   Occupancy sum (eigenvalues):    1039.999999954
                 HOMO-LUMO gap:       0.002145685 Eh
                 Mid-gap level:      -0.097060521 Eh

                        Orbital | Energy (Eh) | Occupancy
                            1    -1.845750001   1.0000000
                        .......   ...........   .........
                         1031    -0.141219160   0.9999990
                         1032    -0.136848878   0.9999961
                         1033    -0.135931984   0.9999948
                         1034    -0.128677985   0.9999492
                         1035    -0.117669944   0.9983633
                         1036    -0.105543590   0.9298338
                         1037    -0.103615495   0.8780091
                         1038    -0.102008205   0.8123830
                         1039    -0.099151756   0.6371269
                         1040    -0.098133363   0.5609143
                        ....... -- gap at 0K -- .........
                         1041    -0.095987678   0.3930691
                         1042    -0.095420717   0.3506773
                         1043    -0.091773184   0.1461850
                         1044    -0.091034418   0.1192719
                         1045    -0.090461879   0.1016143
                         1046    -0.086304311   0.0294960
                         1047    -0.084976448   0.0195954
                         1048    -0.083243381   0.0114254
                         1049    -0.080004702   0.0041350
                         1050    -0.079586298   0.0036249
                        .......   ...........   .........
                         2104     0.775615068   0.0000000

================================================================================

============== Orbital energy and occupancy information for spin 2 =============

      Total number of orbitals:    2104
        Occupancy sum (kernel):    1040.000000047
   Occupancy sum (eigenvalues):    1040.000000047
                 HOMO-LUMO gap:       0.000566961 Eh
                 Mid-gap level:      -0.095704197 Eh

                        Orbital | Energy (Eh) | Occupancy
                            1    -1.845750001   1.0000000
                        .......   ...........   .........
                         1032    -0.136848878   0.9999961
                         1033    -0.135931984   0.9999948
                         1034    -0.128677985   0.9999492
                         1035    -0.117669944   0.9983633
                         1036    -0.105543590   0.9298339
                         1037    -0.103615495   0.8780090
                         1038    -0.102008205   0.8123830
                         1039    -0.099151756   0.6371269
                         1040    -0.098133363   0.5609143
                         1041    -0.095987678   0.3930691
                        ....... -- gap at 0K -- .........
                         1042    -0.095420717   0.3506773
                         1043    -0.091773184   0.1461850
                         1044    -0.091034418   0.1192719
                         1045    -0.090461879   0.1016143
                         1046    -0.086304312   0.0294960
                         1047    -0.084976448   0.0195954
                         1048    -0.083243381   0.0114254
                         1049    -0.080004702   0.0041350
                         1050    -0.079586298   0.0036249
                         1051    -0.076873110   0.0015406
                        .......   ...........   .........
                         2104     0.775615068   0.0000000

================================================================================

===================== Writing canonical molecular orbitals =====================
    Spin 1
| Orbital  Energy (eV)  Norm     |
| HOMO     -2.67034469  1.000000 | Writing "12/592nano_HOMO_UP.cube" ... done
Writing "12/592nano_HOMO_UP.dx" ... done
| LUMO     -2.61195762  1.000000 | Writing "12/592nano_LUMO_UP.cube" ... done
Writing "12/592nano_LUMO_UP.dx" ... done
================================================================================

===================== Writing canonical molecular orbitals =====================
    Spin 2
| Orbital  Energy (eV)  Norm     |
| HOMO     -2.61195762  1.000000 | Writing "12/592nano_HOMO_DN.cube" ... done
Writing "12/592nano_HOMO_DN.dx" ... done
| LUMO     -2.59652983  1.000000 | Writing "12/592nano_LUMO_DN.cube" ... done
Writing "12/592nano_LUMO_DN.dx" ... done
================================================================================

================== Local Density of States (LDOS) calculation ==================
Writing "12/592nano_UP_LDOS.txt" ...  done
================================================================================

================== Local Density of States (LDOS) calculation ==================
Writing "12/592nano_DN_LDOS.txt" ...  done
================================================================================
 
=============== Density of States (DOS) calculation for UP spin ================
Writing "12/592nano_UP_DOS.txt" ...  done
================================================================================
 
============== Density of States (DOS) calculation for DOWN spin ===============
Writing "12/592nano_DN_DOS.txt" ...  done
================================================================================
 
Writing bands to file "12/592nano.val_bands" ... done
 
================ Projected Density of States (pDOS) calculation ================
 
Constructing AM resolved functions  ...... done
Writing NGWF plot files in formats: CUBE DX ...  done
 
Performing overlap integrals ...  done
 
Computing pDOS weights ...  done
 
All bands spilling parameter =   3.55 %
Occupancy-weighted spilling parameter =   0.95 %
 
 => Outputting data for OptaDOS <=
 
Writing pDOS weights to file "12/592nano.val_pdos_bin" ... done
 
Writing band gradients to file "12/592nano.val_dome_bin" ... done
 
Writing Castep output cell file to "12/592nano-out.cell" ... done
 
 => Computing Gaussian smeared pDOS for UP spin<= 
Writing "12/592nano_UP_PDOS.txt" ...  done
 
 => Computing Gaussian smeared pDOS for DOWN spin<= 
Writing "12/592nano_DN_PDOS.txt" ...  done
 
 => Computing Occupancy-weighted Gaussian smeared pDOS for UP spin<= 
Writing "12/592nano_occ_UP_PDOS.txt" ...  done
  => Band centres for UP spin channel: 
 S band centre of group 1:  -15.379260 eV
 P band centre of group 1:   -7.839213 eV
  Band centres for UP spin channel done. <= 
  => Integrated number of electrons in each AM band for UP spin channel: 
 S num electrons of group 1:  277.088029
 P num electrons of group 1:  753.018561
  Integrated number of electrons for UP spin channel done. <= 
 
 => Computing Occupancy-weighted Gaussian smeared pDOS for DOWN spin<= 
Writing "12/592nano_occ_DN_PDOS.txt" ...  done
  => Band centres for DOWN spin channel: 
 S band centre of group 1:  -15.379260 eV
 P band centre of group 1:   -7.839213 eV
  Band centres for DOWN spin channel done. <=
  => Integrated number of electrons in each AM band for DOWN spin channel: 
 S num electrons of group 1:  277.088029
 P num electrons of group 1:  753.018561
  Integrated number of electrons for DOWN spin channel done. <=
================================================================================

------------------------------ TIMING INFORMATION ------------------------------
AVERAGE TIME:   15731.359s on    160 node(s)                                    
TOTAL TIME:     15731.359s on    160 node(s)                                    
================= AVERAGE TIMINGS FROM ALL NODES (CUMULATIVE) ==================
|| TAG                                    #calls    cpu time   %total  Gflops ||
|| work_imbalance                       :     1        0.00s   0.000%  ------ ||
|| paw_tcore_density                    :     1        0.01s   0.000%  ------ ||
|| sparse_set_to_garbage                :   237        0.01s   0.000%  ------ ||
|| paw_sphere_density_on_grid           :     1        0.01s   0.000%  ------ ||
|| basis_extract_function_from_box      :   368        0.02s   0.000%  ------ ||
|| paw_dij_hartree                      :   915        0.03s   0.000%  ------ ||
|| ngwfs_initialise_from_radial         :     2        0.04s   0.000%  ------ ||
|| ewald_calculate_energy               :     1        0.11s   0.001%  ------ ||
|| density_init_guess_real              :     1        0.26s   0.002%  ------ ||
|| paw_dataset_init                     :     3        0.33s   0.002%  ------ ||
|| paw_tcore_hartree_on_grid            :     1        0.40s   0.003%  ------ ||
|| pseudo_make_structure_factor         :     1        0.50s   0.003%  ------ ||
|| sparse_init                          :     1        0.93s   0.006%  ------ ||
|| dense_normal_eigensolve              :     1        0.97s   0.006%  ------ ||
|| restart_kernel_write                 :    15        1.19s   0.008%  ------ ||
|| paw_species_calc_proj_prec_mat       :     1        2.18s   0.014%  ------ ||
|| sparse_embed_hotelling_invert_embed  :    27        5.18s   0.033%  ------ ||
|| sw_init                              :     1        7.54s   0.048%  ------ ||
|| fourier_apply_box_pair               :   923       10.28s   0.065%  2.373k ||
|| ngwf_gradient_coeffs                 :    14       11.65s   0.074%  ------ ||
|| augmentation_screen_dij              :   686       17.25s   0.110%  ------ ||
|| projectors_init_fftbox_recip         :    57       21.49s   0.137%  ------ ||
|| basis_copy_function_to_box           : 24472       30.89s   0.196%  ------ ||
|| integrals_kinetic                    :    27       36.79s   0.234%  ------ ||
|| paw_dij_xc                           :   915       39.69s   0.252%  ------ ||
|| projectors_func_ovlp_box             :    28       40.48s   0.257%  ------ ||
|| function_ops_brappd_ketppd           :    56       50.86s   0.323%  ------ ||
|| hartree_on_grid                      :   681       60.35s   0.384%  ------ ||
|| hamiltonian_energy_components        :     3       73.52s   0.467%  ------ ||
|| sparse_trace                         : 17072       88.48s   0.562%  ------ ||
|| eigenstates_pdos                     :     1      101.93s   0.648%  ------ ||
|| fourier_apply_cell_backward          :  6122      136.46s   0.867% 156.148 ||
|| augmentation_density_on_grid         :   681      138.15s   0.878%  ------ ||
|| aug_nonlocal_mat                     :   901      141.26s   0.898%  ------ ||
|| basis_dot_function_with_box          : 5.203M     141.74s   0.901%  ------ ||
|| fourier_apply_cell_forward           :  6121      149.37s   0.949% 142.635 ||
|| restart_ngwfs_tightbox_output        :    13      156.65s   0.996%  ------ ||
|| eigenstates_calculate                :     1      216.99s   1.379%  ------ ||
|| xc_energy_potential                  :   680      264.99s   1.684%  ------ ||
|| dense_eigensolve                     :  1300      454.03s   2.886%  ------ ||
|| sparse_product                       : 14757      459.62s   2.922%  ------ ||
|| basis_add_function_to_box            : 15.83M     511.33s   3.250%  ------ ||
|| integrals_locpot_mat_els_batch       :   455      582.80s   3.705%  ------ ||
|| projectors_gradient_batch            :    14      585.42s   3.721%  ------ ||
|| cell_grid_extract_box_real           : 14608      703.23s   4.470%  ------ ||
|| cell_grid_deposit_box_real           : 49121      754.90s   4.799%  ------ ||
|| projectors_grad_precond_batch        :    14      803.82s   5.110%  ------ ||
|| density_batch_row_sums               :   681     1292.41s   8.216%  ------ ||
|| density_fftbox_deposit_to_cell       : 21792     1432.74s   9.108%  ------ ||
|| edft_diag_ngwf_ham                   :  1298     1542.87s   9.808%  ------ ||
|| ngwf_gradient_build_batch            :    14     1551.44s   9.862%  ------ ||
|| properties_calculate                 :     1     1591.73s  10.118%  ------ ||
|| potential_apply_to_ngwf_batch        :   455     1630.00s  10.361%  ------ ||
|| fourier_apply_box                    : 78451     1635.64s  10.397%  4.141k ||
|| ngwf_gradient_batch                  :    14     1687.10s  10.724%  ------ ||
|| ngwf_gradient_lnv                    :    14     1708.01s  10.857%  ------ ||
|| density_fftbox_interpolate_multiply  : 21792     1845.03s  11.728%  ------ ||
|| integrals_locpot_dbl_grid            :   455     2263.45s  14.388%  ------ ||
|| edft_apply_smearing_operator         :   649     2499.54s  15.889%  ------ ||
|| density_batch_interp_deposit         :   681     4026.37s  25.595%  ------ ||
|| density_on_dbl_grid                  :   681     5437.23s  34.563%  ------ ||
|| hamiltonian_lhxc_calculate           :   676     6113.82s  38.864%  ------ ||
|| edft_calculate                       :    14    11171.56s  71.015%  ------ ||
|| ngwf_cg_optimise                     :     1    14118.66s  89.749%  ------ ||
|| total_time                           :     1    15731.36s 100.000%  ------ ||
================================================================================
Overhead of generating timer report: 
- 0 ms averaging over threads,
- 25 ms ensuring consistency across MPI ranks,
- 0 ms printing in order.

Job completed: 25-08-2020 23:12 (+0100)

