 +---------------------------------------------------------------+
 |                                                               |
 |        ####### #     # ####### ####### ####### ######         |
 |        #     # ##    # #          #    #       #     #        |
 |        #     # # #   # #          #    #       #     #        |
 |        #     # #  #  # #####      #    #####   ######         |
 |        #     # #   # # #          #    #       #              |
 |        #     # #    ## #          #    #       #              |
 |        ####### #     # #######    #    ####### #              |
 |                                                               |
 |        Linear-Scaling Ab Initio Total Energy Program          |
 |                                                               |
 |          Release for academic collaborators of ODG            |
 |                                             Version 5.3.2.12  |
 |                                                               |
 +---------------------------------------------------------------+
 |                                                               |
 |  Authors:                                                     |
 |  Jacek Dziedzic, Peter D. Haynes, Nicholas D. M. Hine,        |
 |  Arash. A. Mostofi, Mike C. Payne and Chris-Kriton Skylaris   |
 |                                                               |
 |  Contributors:                                                |
 |  J. Aarons, L. Andrinopoulos, P. W. Avraam, R. A. Bell,       |
 |  A. Bhandari, G. A. Bramley, R. J. Charlton, S. J. Clark,     |
 |  R. J. Clements, G. C. Constantinescu, F. Corsetti,           |
 |  N. Corsini, O. Dieguez, S. M. M. Dubois, K. K. B. Duff,      |
 |  J. M. Escartin, A. Greco, H. Helal, Q. O. Hill, L. P. Lee,   |
 |  J.-H. Li, E. B. Linscott, G. Moynihan, D. D. O`Regan,        |
 |  O. K. Okan, M. J. S. Phipps, C. J. Pickard,                  |
 |  J. C. A. Prentice, M. I. J. Probert, L. E. Ratcliff,         |
 |  M. Robinson, A. Ruiz Serrano, J. S. Spencer, E. W. Tait,     |
 |  G. Teobaldi, D. Turban, V. Vitale, K. A. Wilkinson,          |
 |  C. Weber, J. C. Womack, N. Yeung and T. J. Zuehlsdorff       |
 |                                                               |
 |                                   Copyright (c) 2004-2020     |
 |                                                               |
 |  Please cite:                                                 |
 |  "Introducing ONETEP: Linear-scaling density functional       |
 |   simulations on parallel computers".                         |
 |   C.-K. Skylaris, P. D. Haynes, A. A. Mostofi, M. C. Payne.   |
 |   J. Chem. Phys. 122 084119 (2005).                           |
 |                                                               |
 |          in all publications arising from your use of ONETEP. |
 |                                                               |
 +---------------------------------------------------------------+
 |                                                               |
 |   ONETEP is based on developments described in the following  |
 |   publications:                                               |
 |                                                               |
 |  "Nonorthogonal generalized Wannier function pseudopotential  |
 |   plane-wave method".                                         |
 |   C.-K. Skylaris, A. A. Mostofi, P. D. Haynes, O. Dieguez,    |
 |   M. C. Payne.                                                |
 |   Phys. Rev. B 66 035119 (2002).                              |
 |                                                               |
 |  "Preconditioned iterative minimization for linear-scaling    |
 |   electronic structure calculations".                         |
 |   A. A. Mostofi, P. D. Haynes, C.-K. Skylaris, M. C. Payne.   |
 |   J. Chem. Phys. 119(17), pp.8842-8848 (2003).                |
 |                                                               |
 |  "Total-energy calculations on a real space grid with         |
 |   localized functions and a plane-wave basis".                |
 |   A. A. Mostofi, C.-K. Skylaris, P. D. Haynes, M. C. Payne.   |
 |   Comput. Phys. Commun. 147, pp.788-802 (2002).               |
 |                                                               |
 |  "Accurate kinetic energy evaluation in electronic structure  |
 |   calculations with localized functions on real space grids"  |
 |   C.-K. Skylaris, A. A. Mostofi, P. D. Haynes, C. J. Pickard, |
 |   M. C. Payne.                                                |
 |   Comput. Phys. Commun. 140, pp.315-322 (2001).               |
 |                                                               |
 |  "Accurate ionic forces and geometry optimization in linear-  |
 |   scaling density-functional theory with local orbitals"      |
 |   N. D. M. Hine, M. Robinson, P. D. Haynes, C.-K. Skylaris,   |
 |   M. C. Payne, and A. A. Mostofi.                             |
 |   Phys. Rev. B 83 195102 (2011).                              |
 |                                                               |
 +---------------------------------------------------------------+

Job started: 21-02-2020 12:33 (-0000)
 
Reading parameters from file "3.1930128_GO_manual_4x64graphite.dat" ...

WARNING: "cutoff_energy" not specified, but "psinc_spacing" specified.
         Using the latter to set the KE cutoff energy to  732.32021eV,
         thus *overriding* the default.

... done

If your calculation crashes here, before "Checking processes and threads..."
is displayed, then your stack size is insufficient.
If so, use "ulimit -s unlimited" at runtime.
You can disable this check with "check_stack_size F".

Checking processes and threads...
   Determining the default number of threads...
      No default threads set at compilation time: defaulting to 1.
      OpenMP library call suggests 4 threads.
      Hybrid MPI-OpenMP compilation detected.
      Number of MPI processes > 1.
      OMP_NUM_THREADS environment variable present and
      its value matches the one obtained from the OpenMP library call.
      Using this value as default.
      Default threads: 4
      Default applies to threads_max and threads_num_fftboxes.
      Settings in the input file override this default.
   ... done

   Running with 40 MPI processes.
   There are 10 MPI processes running on the same node as the root process.
   Each MPI process is using: 
               1 threads for simulation cell FFTs.
               1 threads for parallel FFT box operations.
               4 threads for loops over batched FFT box operations.
               4 threads in other parallel regions.
... done

Basic input checks...
Resetting ngwf_cg_rotate to TRUE for EDFT calculations
... done

Reading geometry and species blocks from file "3.1930128_GO_manual_4x64graphite.dat" ...
    
  PSINC grid spacing along a1 set to   0.511215680000a0 from input file.
  PSINC grid spacing along a2 set to   0.531284090000a0 from input file.
  PSINC grid spacing along a3 set to   0.507053120000a0 from input file.
  Number of PPD points along a3 set to 1.  This is 
  the default value, it may have been provided also in the input file.
... done
 Writing xyz coordinates to file "3.1930128_GO_manual_4x64graphite.xyz" ... done


--------------------------------------------------------------------------------
---------------------------------- INPUT FILE ----------------------------------
--------------------------------------------------------------------------------

task : singlepoint                                                              
do_properties : true                                                            
dx_format T                                                                     
edft T                                                                          
output_detail VERBOSE                                                           
write_xyz T                                                                     
xc_functional VV10                                                              
PSINC_SPACING 0.51121568 0.53128409 0.50705312                                  
paw T                                                                           
pdos_max_l = 2                                                                  
dos_smear  0.1 eV                                                               
popn_calculate T                                                                
PDOS_PSEUDOATOMIC T                                                             
PDOS_REDUCE_SWS F                                                               
PDOS_CONSTRUCT_BASIS F                                                          
PDOS_LOWDIN T                                                                   
PDOS_ORTH_ATOM_BLOCKS F                                                         
PDOS_LCAO_OPTIMIZE F                                                            
pdos_optados_output T                                                           
homo_plot 0                                                                     
lumo_plot 0                                                                     
homo_dens_plot -1                                                               
lumo_dens_plot -1                                                               
%BLOCK SPECIES                                                                  
C C 6 4 9.0                                                                     
%ENDBLOCK SPECIES                                                               
%BLOCK SPECIES_POT                                                              
C "~/pp/paw/c_pbe_abinit.paw"                                                   
%ENDBLOCK SPECIES_POT                                                           
%BLOCK SPECIES_ATOMIC_SET                                                       
C "SOLVE conf=2s2 2p2"                                                          
%ENDBLOCK SPECIES_ATOMIC_SET                                                    
%BLOCK LATTICE_CART                                                             
32.21  0.00  0.00                                                               
0.00 18.59  0.00                                                                
0.00  0.00 60.34                                                                
%ENDBLOCK LATTICE_CART                                                          
%BLOCK POSITIONS_ABS                                                            
C  0.00  0.00  3.02                                                             
C  0.00  0.00 15.08                                                             
C  0.00  0.00 27.15                                                             
C  0.00  0.00 39.22                                                             
C  0.00  0.00 51.29                                                             
C  0.00  4.65  3.02                                                             
C  0.00  4.65 15.08                                                             
C  0.00  4.65 27.15                                                             
C  0.00  4.65 39.22                                                             
C  0.00  4.65 51.29                                                             
C  4.03  2.32  3.02                                                             
C  4.03  2.32 15.08                                                             
C  4.03  2.32 27.15                                                             
C  4.03  2.32 39.22                                                             
C  4.03  2.32 51.29                                                             
C  8.05  0.00  3.02                                                             
C  8.05  0.00 15.08                                                             
C  8.05  0.00 27.15                                                             
C  8.05  0.00 39.22                                                             
C  8.05  0.00 51.29                                                             
C  0.00  9.30  3.02                                                             
C  0.00  9.30 15.08                                                             
C  0.00  9.30 27.15                                                             
C  0.00  9.30 39.22                                                             
C  0.00  9.30 51.29                                                             
C  4.03  6.97  3.02                                                             
C  4.03  6.97 15.08                                                             
C  4.03  6.97 27.15                                                             
C  4.03  6.97 39.22                                                             
C  4.03  6.97 51.29                                                             
C  8.05  4.65  3.02                                                             
C  8.05  4.65 15.08                                                             
C  8.05  4.65 27.15                                                             
C  8.05  4.65 39.22                                                             
C  8.05  4.65 51.29                                                             
C 12.08  2.32  3.02                                                             
C 12.08  2.32 15.08                                                             
C 12.08  2.32 27.15                                                             
C 12.08  2.32 39.22                                                             
C 12.08  2.32 51.29                                                             
C 16.10  0.00  3.02                                                             
C 16.10  0.00 15.08                                                             
C 16.10  0.00 27.15                                                             
C 16.10  0.00 39.22                                                             
C 16.10  0.00 51.29                                                             
C  0.00 13.95  3.02                                                             
C  0.00 13.95 15.08                                                             
C  0.00 13.95 27.15                                                             
C  0.00 13.95 39.22                                                             
C  0.00 13.95 51.29                                                             
C  4.03 11.62  3.02                                                             
C  4.03 11.62 15.08                                                             
C  4.03 11.62 27.15                                                             
C  4.03 11.62 39.22                                                             
C  4.03 11.62 51.29                                                             
C  8.05  9.30  3.02                                                             
C  8.05  9.30 15.08                                                             
C  8.05  9.30 27.15                                                             
C  8.05  9.30 39.22                                                             
C  8.05  9.30 51.29                                                             
C 12.08  6.97  3.02                                                             
C 12.08  6.97 15.08                                                             
C 12.08  6.97 27.15                                                             
C 12.08  6.97 39.22                                                             
C 12.08  6.97 51.29                                                             
C 16.10  4.65  3.02                                                             
C 16.10  4.65 15.08                                                             
C 16.10  4.65 27.15                                                             
C 16.10  4.65 39.22                                                             
C 16.10  4.65 51.29                                                             
C 20.13  2.32  3.02                                                             
C 20.13  2.32 15.08                                                             
C 20.13  2.32 27.15                                                             
C 20.13  2.32 39.22                                                             
C 20.13  2.32 51.29                                                             
C 24.16  0.00  3.02                                                             
C 24.16  0.00 15.08                                                             
C 24.16  0.00 27.15                                                             
C 24.16  0.00 39.22                                                             
C 24.16  0.00 51.29                                                             
C  4.03 16.27  3.02                                                             
C  4.03 16.27 15.08                                                             
C  4.03 16.27 27.15                                                             
C  4.03 16.27 39.22                                                             
C  4.03 16.27 51.29                                                             
C  8.05 13.95  3.02                                                             
C  8.05 13.95 15.08                                                             
C  8.05 13.95 27.15                                                             
C  8.05 13.95 39.22                                                             
C  8.05 13.95 51.29                                                             
C 12.08 11.62  3.02                                                             
C 12.08 11.62 15.08                                                             
C 12.08 11.62 27.15                                                             
C 12.08 11.62 39.22                                                             
C 12.08 11.62 51.29                                                             
C 16.10  9.30  3.02                                                             
C 16.10  9.30 15.08                                                             
C 16.10  9.30 27.15                                                             
C 16.10  9.30 39.22                                                             
C 16.10  9.30 51.29                                                             
C 20.13  6.97  3.02                                                             
C 20.13  6.97 15.08                                                             
C 20.13  6.97 27.15                                                             
C 20.13  6.97 39.22                                                             
C 20.13  6.97 51.29                                                             
C 24.16  4.65  3.02                                                             
C 24.16  4.65 15.08                                                             
C 24.16  4.65 27.15                                                             
C 24.16  4.65 39.22                                                             
C 24.16  4.65 51.29                                                             
C 28.18  2.32  3.02                                                             
C 28.18  2.32 15.08                                                             
C 28.18  2.32 27.15                                                             
C 28.18  2.32 39.22                                                             
C 28.18  2.32 51.29                                                             
C 12.08 16.27  3.02                                                             
C 12.08 16.27 15.08                                                             
C 12.08 16.27 27.15                                                             
C 12.08 16.27 39.22                                                             
C 12.08 16.27 51.29                                                             
C 16.10 13.95  3.02                                                             
C 16.10 13.95 15.08                                                             
C 16.10 13.95 27.15                                                             
C 16.10 13.95 39.22                                                             
C 16.10 13.95 51.29                                                             
C 20.13 11.62  3.02                                                             
C 20.13 11.62 15.08                                                             
C 20.13 11.62 27.15                                                             
C 20.13 11.62 39.22                                                             
C 20.13 11.62 51.29                                                             
C 24.16  9.30  3.02                                                             
C 24.16  9.30 15.08                                                             
C 24.16  9.30 27.15                                                             
C 24.16  9.30 39.22                                                             
C 24.16  9.30 51.29                                                             
C 28.18  6.97  3.02                                                             
C 28.18  6.97 15.08                                                             
C 28.18  6.97 27.15                                                             
C 28.18  6.97 39.22                                                             
C 28.18  6.97 51.29                                                             
C 20.13 16.27  3.02                                                             
C 20.13 16.27 15.08                                                             
C 20.13 16.27 27.15                                                             
C 20.13 16.27 39.22                                                             
C 20.13 16.27 51.29                                                             
C 24.16 13.95  3.02                                                             
C 24.16 13.95 15.08                                                             
C 24.16 13.95 27.15                                                             
C 24.16 13.95 39.22                                                             
C 24.16 13.95 51.29                                                             
C 28.18 11.62  3.02                                                             
C 28.18 11.62 15.08                                                             
C 28.18 11.62 27.15                                                             
C 28.18 11.62 39.22                                                             
C 28.18 11.62 51.29                                                             
C 28.18 16.27  3.02                                                             
C 28.18 16.27 15.08                                                             
C 28.18 16.27 27.15                                                             
C 28.18 16.27 39.22                                                             
C 28.18 16.27 51.29                                                             
C  0.00  0.00  9.05                                                             
C  0.00  0.00 21.12                                                             
C  0.00  0.00 33.19                                                             
C  0.00  0.00 45.25                                                             
C  0.00  0.00 57.32                                                             
C  0.00  4.65  9.05                                                             
C  0.00  4.65 21.12                                                             
C  0.00  4.65 33.19                                                             
C  0.00  4.65 45.25                                                             
C  0.00  4.65 57.32                                                             
C  4.03  2.32  9.05                                                             
C  4.03  2.32 21.12                                                             
C  4.03  2.32 33.19                                                             
C  4.03  2.32 45.25                                                             
C  4.03  2.32 57.32                                                             
C  8.05  0.00  9.05                                                             
C  8.05  0.00 21.12                                                             
C  8.05  0.00 33.19                                                             
C  8.05  0.00 45.25                                                             
C  8.05  0.00 57.32                                                             
C  0.00  9.30  9.05                                                             
C  0.00  9.30 21.12                                                             
C  0.00  9.30 33.19                                                             
C  0.00  9.30 45.25                                                             
C  0.00  9.30 57.32                                                             
C  4.03  6.97  9.05                                                             
C  4.03  6.97 21.12                                                             
C  4.03  6.97 33.19                                                             
C  4.03  6.97 45.25                                                             
C  4.03  6.97 57.32                                                             
C  8.05  4.65  9.05                                                             
C  8.05  4.65 21.12                                                             
C  8.05  4.65 33.19                                                             
C  8.05  4.65 45.25                                                             
C  8.05  4.65 57.32                                                             
C 12.08  2.32  9.05                                                             
C 12.08  2.32 21.12                                                             
C 12.08  2.32 33.19                                                             
C 12.08  2.32 45.25                                                             
C 12.08  2.32 57.32                                                             
C 16.10  0.00  9.05                                                             
C 16.10  0.00 21.12                                                             
C 16.10  0.00 33.19                                                             
C 16.10  0.00 45.25                                                             
C 16.10  0.00 57.32                                                             
C  0.00 13.95  9.05                                                             
C  0.00 13.95 21.12                                                             
C  0.00 13.95 33.19                                                             
C  0.00 13.95 45.25                                                             
C  0.00 13.95 57.32                                                             
C  4.03 11.62  9.05                                                             
C  4.03 11.62 21.12                                                             
C  4.03 11.62 33.19                                                             
C  4.03 11.62 45.25                                                             
C  4.03 11.62 57.32                                                             
C  8.05  9.30  9.05                                                             
C  8.05  9.30 21.12                                                             
C  8.05  9.30 33.19                                                             
C  8.05  9.30 45.25                                                             
C  8.05  9.30 57.32                                                             
C 12.08  6.97  9.05                                                             
C 12.08  6.97 21.12                                                             
C 12.08  6.97 33.19                                                             
C 12.08  6.97 45.25                                                             
C 12.08  6.97 57.32                                                             
C 16.10  4.65  9.05                                                             
C 16.10  4.65 21.12                                                             
C 16.10  4.65 33.19                                                             
C 16.10  4.65 45.25                                                             
C 16.10  4.65 57.32                                                             
C 20.13  2.32  9.05                                                             
C 20.13  2.32 21.12                                                             
C 20.13  2.32 33.19                                                             
C 20.13  2.32 45.25                                                             
C 20.13  2.32 57.32                                                             
C 24.16  0.00  9.05                                                             
C 24.16  0.00 21.12                                                             
C 24.16  0.00 33.19                                                             
C 24.16  0.00 45.25                                                             
C 24.16  0.00 57.32                                                             
C  4.03 16.27  9.05                                                             
C  4.03 16.27 21.12                                                             
C  4.03 16.27 33.19                                                             
C  4.03 16.27 45.25                                                             
C  4.03 16.27 57.32                                                             
C  8.05 13.95  9.05                                                             
C  8.05 13.95 21.12                                                             
C  8.05 13.95 33.19                                                             
C  8.05 13.95 45.25                                                             
C  8.05 13.95 57.32                                                             
C 12.08 11.62  9.05                                                             
C 12.08 11.62 21.12                                                             
C 12.08 11.62 33.19                                                             
C 12.08 11.62 45.25                                                             
C 12.08 11.62 57.32                                                             
C 16.10  9.30  9.05                                                             
C 16.10  9.30 21.12                                                             
C 16.10  9.30 33.19                                                             
C 16.10  9.30 45.25                                                             
C 16.10  9.30 57.32                                                             
C 20.13  6.97  9.05                                                             
C 20.13  6.97 21.12                                                             
C 20.13  6.97 33.19                                                             
C 20.13  6.97 45.25                                                             
C 20.13  6.97 57.32                                                             
C 24.16  4.65  9.05                                                             
C 24.16  4.65 21.12                                                             
C 24.16  4.65 33.19                                                             
C 24.16  4.65 45.25                                                             
C 24.16  4.65 57.32                                                             
C 28.18  2.32  9.05                                                             
C 28.18  2.32 21.12                                                             
C 28.18  2.32 33.19                                                             
C 28.18  2.32 45.25                                                             
C 28.18  2.32 57.32                                                             
C 12.08 16.27  9.05                                                             
C 12.08 16.27 21.12                                                             
C 12.08 16.27 33.19                                                             
C 12.08 16.27 45.25                                                             
C 12.08 16.27 57.32                                                             
C 16.10 13.95  9.05                                                             
C 16.10 13.95 21.12                                                             
C 16.10 13.95 33.19                                                             
C 16.10 13.95 45.25                                                             
C 16.10 13.95 57.32                                                             
C 20.13 11.62  9.05                                                             
C 20.13 11.62 21.12                                                             
C 20.13 11.62 33.19                                                             
C 20.13 11.62 45.25                                                             
C 20.13 11.62 57.32                                                             
C 24.16  9.30  9.05                                                             
C 24.16  9.30 21.12                                                             
C 24.16  9.30 33.19                                                             
C 24.16  9.30 45.25                                                             
C 24.16  9.30 57.32                                                             
C 28.18  6.97  9.05                                                             
C 28.18  6.97 21.12                                                             
C 28.18  6.97 33.19                                                             
C 28.18  6.97 45.25                                                             
C 28.18  6.97 57.32                                                             
C 20.13 16.27  9.05                                                             
C 20.13 16.27 21.12                                                             
C 20.13 16.27 33.19                                                             
C 20.13 16.27 45.25                                                             
C 20.13 16.27 57.32                                                             
C 24.16 13.95  9.05                                                             
C 24.16 13.95 21.12                                                             
C 24.16 13.95 33.19                                                             
C 24.16 13.95 45.25                                                             
C 24.16 13.95 57.32                                                             
C 28.18 11.62  9.05                                                             
C 28.18 11.62 21.12                                                             
C 28.18 11.62 33.19                                                             
C 28.18 11.62 45.25                                                             
C 28.18 11.62 57.32                                                             
C 28.18 16.27  9.05                                                             
C 28.18 16.27 21.12                                                             
C 28.18 16.27 33.19                                                             
C 28.18 16.27 45.25                                                             
C 28.18 16.27 57.32                                                             
C  1.34  2.32  3.02                                                             
C  1.34  2.32 15.08                                                             
C  1.34  2.32 27.15                                                             
C  1.34  2.32 39.22                                                             
C  1.34  2.32 51.29                                                             
C  5.37  0.00  3.02                                                             
C  5.37  0.00 15.08                                                             
C  5.37  0.00 27.15                                                             
C  5.37  0.00 39.22                                                             
C  5.37  0.00 51.29                                                             
C  1.34  6.97  3.02                                                             
C  1.34  6.97 15.08                                                             
C  1.34  6.97 27.15                                                             
C  1.34  6.97 39.22                                                             
C  1.34  6.97 51.29                                                             
C  5.37  4.65  3.02                                                             
C  5.37  4.65 15.08                                                             
C  5.37  4.65 27.15                                                             
C  5.37  4.65 39.22                                                             
C  5.37  4.65 51.29                                                             
C  9.39  2.32  3.02                                                             
C  9.39  2.32 15.08                                                             
C  9.39  2.32 27.15                                                             
C  9.39  2.32 39.22                                                             
C  9.39  2.32 51.29                                                             
C 13.42  0.00  3.02                                                             
C 13.42  0.00 15.08                                                             
C 13.42  0.00 27.15                                                             
C 13.42  0.00 39.22                                                             
C 13.42  0.00 51.29                                                             
C  1.34 11.62  3.02                                                             
C  1.34 11.62 15.08                                                             
C  1.34 11.62 27.15                                                             
C  1.34 11.62 39.22                                                             
C  1.34 11.62 51.29                                                             
C  5.37  9.30  3.02                                                             
C  5.37  9.30 15.08                                                             
C  5.37  9.30 27.15                                                             
C  5.37  9.30 39.22                                                             
C  5.37  9.30 51.29                                                             
C  9.39  6.97  3.02                                                             
C  9.39  6.97 15.08                                                             
C  9.39  6.97 27.15                                                             
C  9.39  6.97 39.22                                                             
C  9.39  6.97 51.29                                                             
C 13.42  4.65  3.02                                                             
C 13.42  4.65 15.08                                                             
C 13.42  4.65 27.15                                                             
C 13.42  4.65 39.22                                                             
C 13.42  4.65 51.29                                                             
C 17.45  2.32  3.02                                                             
C 17.45  2.32 15.08                                                             
C 17.45  2.32 27.15                                                             
C 17.45  2.32 39.22                                                             
C 17.45  2.32 51.29                                                             
C 21.47  0.00  3.02                                                             
C 21.47  0.00 15.08                                                             
C 21.47  0.00 27.15                                                             
C 21.47  0.00 39.22                                                             
C 21.47  0.00 51.29                                                             
C  1.34 16.27  3.02                                                             
C  1.34 16.27 15.08                                                             
C  1.34 16.27 27.15                                                             
C  1.34 16.27 39.22                                                             
C  1.34 16.27 51.29                                                             
C  5.37 13.95  3.02                                                             
C  5.37 13.95 15.08                                                             
C  5.37 13.95 27.15                                                             
C  5.37 13.95 39.22                                                             
C  5.37 13.95 51.29                                                             
C  9.39 11.62  3.02                                                             
C  9.39 11.62 15.08                                                             
C  9.39 11.62 27.15                                                             
C  9.39 11.62 39.22                                                             
C  9.39 11.62 51.29                                                             
C 13.42  9.30  3.02                                                             
C 13.42  9.30 15.08                                                             
C 13.42  9.30 27.15                                                             
C 13.42  9.30 39.22                                                             
C 13.42  9.30 51.29                                                             
C 17.45  6.97  3.02                                                             
C 17.45  6.97 15.08                                                             
C 17.45  6.97 27.15                                                             
C 17.45  6.97 39.22                                                             
C 17.45  6.97 51.29                                                             
C 21.47  4.65  3.02                                                             
C 21.47  4.65 15.08                                                             
C 21.47  4.65 27.15                                                             
C 21.47  4.65 39.22                                                             
C 21.47  4.65 51.29                                                             
C 25.50  2.32  3.02                                                             
C 25.50  2.32 15.08                                                             
C 25.50  2.32 27.15                                                             
C 25.50  2.32 39.22                                                             
C 25.50  2.32 51.29                                                             
C 29.52  0.00  3.02                                                             
C 29.52  0.00 15.08                                                             
C 29.52  0.00 27.15                                                             
C 29.52  0.00 39.22                                                             
C 29.52  0.00 51.29                                                             
C  9.39 16.27  3.02                                                             
C  9.39 16.27 15.08                                                             
C  9.39 16.27 27.15                                                             
C  9.39 16.27 39.22                                                             
C  9.39 16.27 51.29                                                             
C 13.42 13.95  3.02                                                             
C 13.42 13.95 15.08                                                             
C 13.42 13.95 27.15                                                             
C 13.42 13.95 39.22                                                             
C 13.42 13.95 51.29                                                             
C 17.45 11.62  3.02                                                             
C 17.45 11.62 15.08                                                             
C 17.45 11.62 27.15                                                             
C 17.45 11.62 39.22                                                             
C 17.45 11.62 51.29                                                             
C 21.47  9.30  3.02                                                             
C 21.47  9.30 15.08                                                             
C 21.47  9.30 27.15                                                             
C 21.47  9.30 39.22                                                             
C 21.47  9.30 51.29                                                             
C 25.50  6.97  3.02                                                             
C 25.50  6.97 15.08                                                             
C 25.50  6.97 27.15                                                             
C 25.50  6.97 39.22                                                             
C 25.50  6.97 51.29                                                             
C 29.52  4.65  3.02                                                             
C 29.52  4.65 15.08                                                             
C 29.52  4.65 27.15                                                             
C 29.52  4.65 39.22                                                             
C 29.52  4.65 51.29                                                             
C 17.45 16.27  3.02                                                             
C 17.45 16.27 15.08                                                             
C 17.45 16.27 27.15                                                             
C 17.45 16.27 39.22                                                             
C 17.45 16.27 51.29                                                             
C 21.47 13.95  3.02                                                             
C 21.47 13.95 15.08                                                             
C 21.47 13.95 27.15                                                             
C 21.47 13.95 39.22                                                             
C 21.47 13.95 51.29                                                             
C 25.50 11.62  3.02                                                             
C 25.50 11.62 15.08                                                             
C 25.50 11.62 27.15                                                             
C 25.50 11.62 39.22                                                             
C 25.50 11.62 51.29                                                             
C 29.52  9.30  3.02                                                             
C 29.52  9.30 15.08                                                             
C 29.52  9.30 27.15                                                             
C 29.52  9.30 39.22                                                             
C 29.52  9.30 51.29                                                             
C 25.50 16.27  3.02                                                             
C 25.50 16.27 15.08                                                             
C 25.50 16.27 27.15                                                             
C 25.50 16.27 39.22                                                             
C 25.50 16.27 51.29                                                             
C 29.52 13.95  3.02                                                             
C 29.52 13.95 15.08                                                             
C 29.52 13.95 27.15                                                             
C 29.52 13.95 39.22                                                             
C 29.52 13.95 51.29                                                             
C  2.68  0.00  9.05                                                             
C  2.68  0.00 21.12                                                             
C  2.68  0.00 33.19                                                             
C  2.68  0.00 45.25                                                             
C  2.68  0.00 57.32                                                             
C  2.68  4.65  9.05                                                             
C  2.68  4.65 21.12                                                             
C  2.68  4.65 33.19                                                             
C  2.68  4.65 45.25                                                             
C  2.68  4.65 57.32                                                             
C  6.71  2.32  9.05                                                             
C  6.71  2.32 21.12                                                             
C  6.71  2.32 33.19                                                             
C  6.71  2.32 45.25                                                             
C  6.71  2.32 57.32                                                             
C 10.74  0.00  9.05                                                             
C 10.74  0.00 21.12                                                             
C 10.74  0.00 33.19                                                             
C 10.74  0.00 45.25                                                             
C 10.74  0.00 57.32                                                             
C  2.68  9.30  9.05                                                             
C  2.68  9.30 21.12                                                             
C  2.68  9.30 33.19                                                             
C  2.68  9.30 45.25                                                             
C  2.68  9.30 57.32                                                             
C  6.71  6.97  9.05                                                             
C  6.71  6.97 21.12                                                             
C  6.71  6.97 33.19                                                             
C  6.71  6.97 45.25                                                             
C  6.71  6.97 57.32                                                             
C 10.74  4.65  9.05                                                             
C 10.74  4.65 21.12                                                             
C 10.74  4.65 33.19                                                             
C 10.74  4.65 45.25                                                             
C 10.74  4.65 57.32                                                             
C 14.76  2.32  9.05                                                             
C 14.76  2.32 21.12                                                             
C 14.76  2.32 33.19                                                             
C 14.76  2.32 45.25                                                             
C 14.76  2.32 57.32                                                             
C 18.79  0.00  9.05                                                             
C 18.79  0.00 21.12                                                             
C 18.79  0.00 33.19                                                             
C 18.79  0.00 45.25                                                             
C 18.79  0.00 57.32                                                             
C  2.68 13.95  9.05                                                             
C  2.68 13.95 21.12                                                             
C  2.68 13.95 33.19                                                             
C  2.68 13.95 45.25                                                             
C  2.68 13.95 57.32                                                             
C  6.71 11.62  9.05                                                             
C  6.71 11.62 21.12                                                             
C  6.71 11.62 33.19                                                             
C  6.71 11.62 45.25                                                             
C  6.71 11.62 57.32                                                             
C 10.74  9.30  9.05                                                             
C 10.74  9.30 21.12                                                             
C 10.74  9.30 33.19                                                             
C 10.74  9.30 45.25                                                             
C 10.74  9.30 57.32                                                             
C 14.76  6.97  9.05                                                             
C 14.76  6.97 21.12                                                             
C 14.76  6.97 33.19                                                             
C 14.76  6.97 45.25                                                             
C 14.76  6.97 57.32                                                             
C 18.79  4.65  9.05                                                             
C 18.79  4.65 21.12                                                             
C 18.79  4.65 33.19                                                             
C 18.79  4.65 45.25                                                             
C 18.79  4.65 57.32                                                             
C 22.81  2.32  9.05                                                             
C 22.81  2.32 21.12                                                             
C 22.81  2.32 33.19                                                             
C 22.81  2.32 45.25                                                             
C 22.81  2.32 57.32                                                             
C 26.84  0.00  9.05                                                             
C 26.84  0.00 21.12                                                             
C 26.84  0.00 33.19                                                             
C 26.84  0.00 45.25                                                             
C 26.84  0.00 57.32                                                             
C  6.71 16.27  9.05                                                             
C  6.71 16.27 21.12                                                             
C  6.71 16.27 33.19                                                             
C  6.71 16.27 45.25                                                             
C  6.71 16.27 57.32                                                             
C 10.74 13.95  9.05                                                             
C 10.74 13.95 21.12                                                             
C 10.74 13.95 33.19                                                             
C 10.74 13.95 45.25                                                             
C 10.74 13.95 57.32                                                             
C 14.76 11.62  9.05                                                             
C 14.76 11.62 21.12                                                             
C 14.76 11.62 33.19                                                             
C 14.76 11.62 45.25                                                             
C 14.76 11.62 57.32                                                             
C 18.79  9.30  9.05                                                             
C 18.79  9.30 21.12                                                             
C 18.79  9.30 33.19                                                             
C 18.79  9.30 45.25                                                             
C 18.79  9.30 57.32                                                             
C 22.81  6.97  9.05                                                             
C 22.81  6.97 21.12                                                             
C 22.81  6.97 33.19                                                             
C 22.81  6.97 45.25                                                             
C 22.81  6.97 57.32                                                             
C 26.84  4.65  9.05                                                             
C 26.84  4.65 21.12                                                             
C 26.84  4.65 33.19                                                             
C 26.84  4.65 45.25                                                             
C 26.84  4.65 57.32                                                             
C 30.86  2.32  9.05                                                             
C 30.86  2.32 21.12                                                             
C 30.86  2.32 33.19                                                             
C 30.86  2.32 45.25                                                             
C 30.86  2.32 57.32                                                             
C 14.76 16.27  9.05                                                             
C 14.76 16.27 21.12                                                             
C 14.76 16.27 33.19                                                             
C 14.76 16.27 45.25                                                             
C 14.76 16.27 57.32                                                             
C 18.79 13.95  9.05                                                             
C 18.79 13.95 21.12                                                             
C 18.79 13.95 33.19                                                             
C 18.79 13.95 45.25                                                             
C 18.79 13.95 57.32                                                             
C 22.81 11.62  9.05                                                             
C 22.81 11.62 21.12                                                             
C 22.81 11.62 33.19                                                             
C 22.81 11.62 45.25                                                             
C 22.81 11.62 57.32                                                             
C 26.84  9.30  9.05                                                             
C 26.84  9.30 21.12                                                             
C 26.84  9.30 33.19                                                             
C 26.84  9.30 45.25                                                             
C 26.84  9.30 57.32                                                             
C 30.86  6.97  9.05                                                             
C 30.86  6.97 21.12                                                             
C 30.86  6.97 33.19                                                             
C 30.86  6.97 45.25                                                             
C 30.86  6.97 57.32                                                             
C 22.81 16.27  9.05                                                             
C 22.81 16.27 21.12                                                             
C 22.81 16.27 33.19                                                             
C 22.81 16.27 45.25                                                             
C 22.81 16.27 57.32                                                             
C 26.84 13.95  9.05                                                             
C 26.84 13.95 21.12                                                             
C 26.84 13.95 33.19                                                             
C 26.84 13.95 45.25                                                             
C 26.84 13.95 57.32                                                             
C 30.86 11.62  9.05                                                             
C 30.86 11.62 21.12                                                             
C 30.86 11.62 33.19                                                             
C 30.86 11.62 45.25                                                             
C 30.86 11.62 57.32                                                             
C 30.86 16.27  9.05                                                             
C 30.86 16.27 21.12                                                             
C 30.86 16.27 33.19                                                             
C 30.86 16.27 45.25                                                             
C 30.86 16.27 57.32                                                             
%ENDBLOCK POSITIONS_ABS                                                         

--------------------------------------------------------------------------------
-------------------------------- END INPUT FILE --------------------------------
--------------------------------------------------------------------------------


 
<<<<<<<<<<<<<<<<<<<<<<<<<<<<<<<<< Full system >>>>>>>>>>>>>>>>>>>>>>>>>>>>>>>>>>
<<<<<<<<<<<<<<<<<<<<<<<<<<< PAW Dataset information >>>>>>>>>>>>>>>>>>>>>>>>>>>
File: ~/pp/paw/c_pbe_abinit.paw; rc = 1.25 bohr; shape type =  3; rshape = 1.25 bohr;
  Atomic number:  6;  ionic charge:  4.000000
    Partial Wave 1: l = 0
    Partial Wave 2: l = 0
    Partial Wave 3: l = 1
    Partial Wave 4: l = 1
  Core charge supplied for Nonlinear Core Corrections
<<<<<<<<<<<<<<<<<<<<<<<<<<<<<<<<<<<<<<< >>>>>>>>>>>>>>>>>>>>>>>>>>>>>>>>>>>>>>>

-------------------------- Atom counting information ---------------------------
Symbol    Natoms    Nngwfs    Nprojs
  C        640      2560      5120
.......   ......    ......    ......
Totals:    640      2560      5120
--------------------------------------------------------------------------------

=============================== PSINC grid sizes ===============================
                      Simulation cell:   63 x  35 x 119
                              FFT-box:   63 x  35 x 117
                                  PPD:    7 x   5 x   1
Grid space d1=  0.511269841270a0 (KE cutoff=  29.06054Eh = 790.77748eV)
Grid space d2=  0.531142857143a0 (KE cutoff=  26.92659Eh = 732.70972eV)
Grid space d3=  0.507058823529a0 (KE cutoff=  29.54523Eh = 803.96650eV)
================================================================================
  
WARNING in cell_grid_distribute:
Average of less than one 23-slab per node, so workload cannot be
equally balanced between nodes.

********************* Fourier parallelisation information **********************
       Coarse grid (whole simulation cell) dimensions:     63    35   119
          Real-space ('12') slabs/node (min max mean):      2     3     2
         Recip-space ('23') slabs/node (min max mean):      0     1     0
********************************************************************************

********************* Fourier parallelisation information **********************
       Double grid (whole simulation cell) dimensions:    126    70   238
          Real-space ('12') slabs/node (min max mean):      5     6     5
         Recip-space ('23') slabs/node (min max mean):      1     2     1
********************************************************************************

Atom SCF Calculation for C  : Z (AE atom) =   6 : Z (PS atom) =   4
Config String: 2s2 2p2
Orbitals (num,occ):  2     2.00 2.00
Orbitals   (num,l):  2        0    1
Real-space Grid (nr,dr,rmax): 1293    0.0069659443    9.0000000000
Spherical Bessel Basis (nsws,lmax,cutoff):   37    2  161.4736382572
Confining potential (l,width,scale):  0    3.0000000000  100.0000000000
Confining potential (l,width,scale):  1    3.0000000000  100.0000000000
  1         -5.4283124456   -1.2935102156    4.5135257941   -1.5923561795
  2         -5.4241534249   -1.3636937911    4.4427183619   -1.5694122055
  3         -5.4326289545   -1.3865748334    4.4195613881   -1.5634604620
  4         -5.4368073263   -1.3933479911    4.4127833993   -1.5619680687
  5         -5.4388652800   -1.3969668505    4.4091714945   -1.5612108736
  6         -5.4399077146   -1.3988848872    4.4072644158   -1.5608235486
  7         -5.4404434041   -1.3998980658    4.4062615348   -1.5606243010
  8         -5.4407208401   -1.4004325328    4.4057350952   -1.5605214507
  9         -5.4408651553   -1.4007143559    4.4054589454   -1.5604682523
 10         -5.4409404127   -1.4008629743    4.4053141024   -1.5604407028
 11         -5.4409797152   -1.4009413770    4.4052381126   -1.5604264250
 12         -5.4410002582   -1.4009827603    4.4051982277   -1.5604190215
 13         -5.4410110012   -1.4010046176    4.4051772812   -1.5604151811
 14         -5.4410166211   -1.4010161701    4.4051662735   -1.5604131883
 15         -5.4410195614   -1.4010222805    4.4051604845   -1.5604121539
 16         -5.4410211001   -1.4010255150    4.4051574379   -1.5604116169
 17         -5.4410219052   -1.4010272285    4.4051558332   -1.5604113379
 18         -5.4410223266   -1.4010281369    4.4051549874   -1.5604111930
 19         -5.4410225472   -1.4010286190    4.4051545411   -1.5604111177
 20         -5.4410226626   -1.4010288749    4.4051543055   -1.5604110786
 21         -5.4410227231   -1.4010290110    4.4051541810   -1.5604110582
Atom SCF converged after  21 iterations to a total energy of     -5.44102272

Determining parallel strategy ...
... using space-filling curve
... NGWF load balancing: max     64;  min     64;  average     64
... Projector load balancing: max    128;  min    128;  average    128
... done
Calculating Ewald energy ...
              Ewald: real-space energy =    9529.001465
        Ewald: reciprocal-space energy =       0.042581
         Ewald: (sum_charge)**2 Energy =   11501.773302
         Ewald: (sum_charge**2) Energy =     909.295019
                          Ewald Energy =   -2882.024275
Basis initialisation ...... NGWF spheres initialised
... Projector spheres initialised
... NGWF tight boxes initialised
... Projector tight boxes initialised
... Tight-boxes gathered
... NGWF basis size (local,global):     692852  27896992
... PAW projector initialisation
... done

============================= Charge Augmentation ==============================
                           Aug box size:   11 x  11 x  11
================================================================================

========================== Sparse matrix information ===========================
                        Overlap matrix filling:  44.38%
                        Density kernel filling: 100.00%
              NGWF-Proj overlap matrix filling:  13.12%
                    Aug Overlap matrix filling:  47.81%
                    Hamiltonian matrix filling:  47.81%
                  NGWF diagonal matrix filling:   0.16%
                             KS matrix filling: 100.00% 
                           KSKS matrix filling: 100.00% 
================================================================================

Sparse matrix initialisation ... done
NGWF initialisation ...... done
============ Calculation of NGWF S^-1 using Hotelling algorithm ================ 
         Iteration  |  Frobenius norm and Maximum abs value    (of I-S*S_n^-1)   
               1       0.49229524E+02     0.97818082E+00
               2       0.48116910E+02     0.95813680E+00
               3       0.46412101E+02     0.92240445E+00
               4       0.44148538E+02     0.86361998E+00
               5       0.41399872E+02     0.77587647E+00
               6       0.38142885E+02     0.69041834E+00
               7       0.34636751E+02     0.64025652E+00
               8       0.31274288E+02     0.59882090E+00
               9       0.27824556E+02     0.55752289E+00
              10       0.23580270E+02     0.49599116E+00
              11       0.18021211E+02     0.39621951E+00
              12       0.11353760E+02     0.25743630E+00
              13       0.50921397E+01     0.11451840E+00
              14       0.12183433E+01     0.25527610E-01
              15       0.82867745E-01     0.15357462E-02
              16       0.47253251E-03     0.70023163E-05
              17       0.22511999E-07     0.21244828E-09
              18       0.84719630E-13     0.47739590E-14
================================================================================
Calculating core density ...
================================= Core Density =================================
               Core den box size:   21 x  21 x  21
================================================================================
 ... done
Up spin density kernel initialisation ...... done

Writing density kernel to file "3.1930128_GO_manual_4x64graphite.dkn" ... done

>>> Optimising kernel for current NGWFs:

--------------------------- Ensemble-DFT optimisation --------------------------
Running ScaLAPACK on   40 processor(s).

--------------------------------------------------------------------------------
  Iter                              Commutator    Free_energy(A=E-TS)     DeltaA
#    0                          0.000044843838   -3653.01799670087303  -3.65E+03

Step                       =       0.381966011250
Energy                     =   -3653.017954698375
Entropy (-TS)              =      -0.000042002977
Free energy (A=E-TS)       =   -3653.017996700873
Est. 0K Energy 0.5*(E+A)   =   -3653.017975699624
Residual Non-orthogonality =       0.000000000000
Residual N_electrons       =       0.000000000480

Spin          Integrated_Ne            Fermi_level     Delta_Fermi_level
   1      2559.999999997991         0.238821784634              2.39E-01

                           Spin 1          
     Orb      H-eigenvalues     Occupancies
       1 |    -0.4845491389    1.0000000000 | 
                          ------
    1276 |     0.2061530105    0.9999669013 | 
    1277 |     0.2067363724    0.9999602067 | 
    1278 |     0.2067659607    0.9999598332 | 
    1279 |     0.2071550490    0.9999545824 | 
    1280 |     0.2077552071    0.9999451059 | 
                 - Gap at zero temperature -
    1281 |     0.2722498088    0.0000260430 | 
    1282 |     0.2722596203    0.0000259624 | 
    1283 |     0.2723758556    0.0000250268 | 
    1284 |     0.2724788715    0.0000242258 | 
    1285 |     0.2724886893    0.0000241508 | 
                          ------
    2560 |     1.0714477817    0.0000000000 | 

                       |  Abs_value |  Threshold | Converged
     Delta_Free_energy |   3.65E+03 |   1.00E-06 |        No
     Delta_Energy      |   3.65E+03 |   1.00E-04 |        No
     Delta_Entropy     |   4.20E-05 |   1.00E-04 |       Yes
     Commutator        |   4.48E-05 |   1.00E-05 |        No
     Delta_Fermi_level |   2.39E-01 |   1.00E-03 |        No

  Line search of the free energy minimum:
  Step_type        Step             Free_energy   Predicted_free_energy
.   Initial    0.000000    -3653.01799670087303
.    Trial1    0.381966    -3653.02002912133639
.    Trial2    0.618034    -3653.01953962306334
. Quadratic    0.413346    -3653.02004057211025    -3653.02004090295759

--------------------------------------------------------------------------------
  Iter                              Commutator    Free_energy(A=E-TS)     DeltaA
#    1                          0.000019932809   -3653.02004057211025  -2.04E-03

Step                       =       0.413346122881
Energy                     =   -3653.019999420312
Entropy (-TS)              =      -0.000041151493
Free energy (A=E-TS)       =   -3653.020040572110
Est. 0K Energy 0.5*(E+A)   =   -3653.020019996211
Residual Non-orthogonality =       0.000000000000
Residual N_electrons       =      -0.000000000305

Spin          Integrated_Ne            Fermi_level     Delta_Fermi_level
   1      2560.000000001266         0.240737045014              1.92E-03

                           Spin 1          
     Orb      H-eigenvalues     Occupancies
       1 |    -0.4832454882    1.0000000000 | 
                          ------
    1276 |     0.2080572439    0.9999670163 | 
    1277 |     0.2085403582    0.9999615806 | 
    1278 |     0.2085548833    0.9999614040 | 
    1279 |     0.2090879089    0.9999543293 | 
    1280 |     0.2095732433    0.9999467655 | 
                 - Gap at zero temperature -
    1281 |     0.2742259941    0.0000255468 | 
    1282 |     0.2742389372    0.0000254426 | 
    1283 |     0.2743835398    0.0000243070 | 
    1284 |     0.2744857835    0.0000235347 | 
    1285 |     0.2745391726    0.0000231413 | 
                          ------
    2560 |     1.0747398668    0.0000000000 | 

                       |  Abs_value |  Threshold | Converged
     Delta_Free_energy |   2.04E-03 |   1.00E-06 |        No
     Delta_Energy      |   2.04E-03 |   1.00E-04 |        No
     Delta_Entropy     |   8.51E-07 |   1.00E-04 |       Yes
     Commutator        |   1.99E-05 |   1.00E-05 |        No
     Delta_Fermi_level |   1.92E-03 |   1.00E-03 |        No

  Line search of the free energy minimum:
  Step_type        Step             Free_energy   Predicted_free_energy
.   Initial    0.000000    -3653.02004057211025
.    Trial1    0.413346    -3653.02034732322954
.    Trial2    0.637428    -3653.01998434043844
. Quadratic    0.306810    -3653.02038969266096    -3653.02038937996213

--------------------------------------------------------------------------------
  Iter                              Commutator    Free_energy(A=E-TS)     DeltaA
#    2                          0.000013762615   -3653.02038969266096  -3.49E-04

Step                       =       0.306810498808
Energy                     =   -3653.020349056302
Entropy (-TS)              =      -0.000040636712
Free energy (A=E-TS)       =   -3653.020389692661
Est. 0K Energy 0.5*(E+A)   =   -3653.020369374482
Residual Non-orthogonality =       0.000000000000
Residual N_electrons       =       0.000000000353

Spin          Integrated_Ne            Fermi_level     Delta_Fermi_level
   1      2559.999999998539         0.241517218881              7.80E-04

                           Spin 1          
     Orb      H-eigenvalues     Occupancies
       1 |    -0.4826867474    1.0000000000 | 
                          ------
    1276 |     0.2087809697    0.9999675990 | 
    1277 |     0.2092905890    0.9999619422 | 
    1278 |     0.2093030484    0.9999617921 | 
    1279 |     0.2098074789    0.9999551949 | 
    1280 |     0.2103170755    0.9999473729 | 
                 - Gap at zero temperature -
    1281 |     0.2750499602    0.0000251959 | 
    1282 |     0.2750660062    0.0000250686 | 
    1283 |     0.2752138479    0.0000239252 | 
    1284 |     0.2753186960    0.0000231461 | 
    1285 |     0.2753643406    0.0000228148 | 
                          ------
    2560 |     1.0761526776    0.0000000000 | 

                       |  Abs_value |  Threshold | Converged
     Delta_Free_energy |   3.49E-04 |   1.00E-06 |        No
     Delta_Energy      |   3.50E-04 |   1.00E-04 |        No
     Delta_Entropy     |   5.15E-07 |   1.00E-04 |       Yes
     Commutator        |   1.38E-05 |   1.00E-05 |        No
     Delta_Fermi_level |   7.80E-04 |   1.00E-03 |       Yes

  Line search of the free energy minimum:
  Step_type        Step             Free_energy   Predicted_free_energy
.   Initial    0.000000    -3653.02038969266096
.    Trial1    0.306810    -3653.02053634851745
.    Trial2    0.571585    -3653.02033594502927
. Quadratic    0.264030    -3653.02054034018192    -3653.02054030243607

--------------------------------------------------------------------------------
  Iter                              Commutator    Free_energy(A=E-TS)     DeltaA
#    3                          0.000009610356   -3653.02054034018192  -1.51E-04

Step                       =       0.264030447286
Energy                     =   -3653.020499996675
Entropy (-TS)              =      -0.000040343504
Free energy (A=E-TS)       =   -3653.020540340182
Est. 0K Energy 0.5*(E+A)   =   -3653.020520168428
Residual Non-orthogonality =       0.000000000000
Residual N_electrons       =      -0.000000000004

Spin          Integrated_Ne            Fermi_level     Delta_Fermi_level
   1      2560.000000000015         0.241984234733              4.67E-04

                           Spin 1          
     Orb      H-eigenvalues     Occupancies
       1 |    -0.4823489591    1.0000000000 | 
                          ------
    1276 |     0.2092217138    0.9999678667 | 
    1277 |     0.2097351126    0.9999622115 | 
    1278 |     0.2097471436    0.9999620677 | 
    1279 |     0.2102472338    0.9999555790 | 
    1280 |     0.2107601614    0.9999477690 | 
                 - Gap at zero temperature -
    1281 |     0.2755402653    0.0000250113 | 
    1282 |     0.2755574458    0.0000248760 | 
    1283 |     0.2757088346    0.0000237148 | 
    1284 |     0.2758101423    0.0000229682 | 
    1285 |     0.2758526714    0.0000226618 | 
                          ------
    2560 |     1.0770025280    0.0000000000 | 

                       |  Abs_value |  Threshold | Converged
     Delta_Free_energy |   1.51E-04 |   1.00E-06 |        No
     Delta_Energy      |   1.51E-04 |   1.00E-04 |        No
     Delta_Entropy     |   2.93E-07 |   1.00E-04 |       Yes
     Commutator        |   9.61E-06 |   1.00E-05 |       Yes
     Delta_Fermi_level |   4.67E-04 |   1.00E-03 |       Yes

  Line search of the free energy minimum:
  Step_type        Step             Free_energy   Predicted_free_energy
.   Initial    0.000000    -3653.02054034018192
.    Trial1    0.264030    -3653.02061344809727
.    Trial2    0.545146    -3653.02054812963297
. Quadratic    0.280221    -3653.02061368919158    -3653.02061369296644

--------------------------------------------------------------------------------
  Iter                              Commutator    Free_energy(A=E-TS)     DeltaA
#    4                          0.000007120206   -3653.02061368919158  -7.33E-05

Step                       =       0.280220914843
Energy                     =   -3653.020573569633
Entropy (-TS)              =      -0.000040119265
Free energy (A=E-TS)       =   -3653.020613689192
[...]
 C   160 -- C   385       -0.09      5.37000
 C   159 -- C   384       -0.09      5.37000
 C   158 -- C   383       -0.09      5.37000
 C   157 -- C   382       -0.09      5.37000
 C   156 -- C   381       -0.09      5.37000
 C   155 -- C   355       -0.09      5.37000
 C   154 -- C   354       -0.10      5.37000
 C   153 -- C   353       -0.10      5.37000
 C   152 -- C   352       -0.10      5.37000
 C   151 -- C   351       -0.09      5.37000
 C   140 -- C   335       -0.09      5.37000
 C   139 -- C   334       -0.09      5.37000
 C   138 -- C   333       -0.09      5.37000
 C   137 -- C   332       -0.09      5.37000
 C   136 -- C   331       -0.09      5.37000
 C   115 -- C   325       -0.09      5.37000
 C   114 -- C   324       -0.09      5.37000
 C   113 -- C   323       -0.09      5.37000
 C   112 -- C   322       -0.09      5.37000
 C   111 -- C   321       -0.09      5.37000
 C   219 -- C   569       -0.09      5.37202
 C   218 -- C   568       -0.09      5.37202
 C   217 -- C   567       -0.09      5.37202
 C   216 -- C   566       -0.09      5.37202
 C   285 -- C   580       -0.09      5.37202
 C   284 -- C   579       -0.09      5.37202
 C   283 -- C   578       -0.09      5.37202
 C   282 -- C   577       -0.09      5.37202
 C   281 -- C   576       -0.09      5.37202
 C   260 -- C   605       -0.09      5.37202
 C   259 -- C   604       -0.09      5.37202
 C   258 -- C   603       -0.09      5.37202
 C   257 -- C   602       -0.09      5.37202
 C   256 -- C   601       -0.09      5.37202
 C   250 -- C   540       -0.09      5.37202
 C   249 -- C   539       -0.09      5.37202
 C   248 -- C   538       -0.09      5.37202
 C   247 -- C   537       -0.09      5.37202
 C   246 -- C   536       -0.09      5.37202
 C   220 -- C   570       -0.09      5.37202
 C   220 -- C   515       -0.09      5.37202
 C   219 -- C   514       -0.09      5.37202
 C   218 -- C   513       -0.09      5.37202
 C   217 -- C   512       -0.09      5.37202
 C   216 -- C   511       -0.09      5.37202
 C    95 -- C   425       -0.09      5.37202
 C    94 -- C   424       -0.09      5.37202
 C    93 -- C   423       -0.09      5.37202
 C   195 -- C   540       -0.09      5.37202
 C   195 -- C   500       -0.09      5.37202
 C   194 -- C   539       -0.09      5.37202
 C    92 -- C   422       -0.09      5.37202
 C   194 -- C   499       -0.09      5.37202
 C   193 -- C   538       -0.09      5.37202
 C   193 -- C   498       -0.09      5.37202
 C   192 -- C   537       -0.09      5.37202
 C    91 -- C   421       -0.09      5.37202
 C   192 -- C   497       -0.09      5.37202
 C   191 -- C   536       -0.09      5.37202
 C   191 -- C   496       -0.09      5.37202
 C    85 -- C   355       -0.09      5.37202
 C   180 -- C   515       -0.09      5.37202
 C    84 -- C   354       -0.09      5.37202
 C   179 -- C   514       -0.09      5.37202
 C    83 -- C   353       -0.09      5.37202
 C   178 -- C   513       -0.09      5.37202
 C   177 -- C   512       -0.09      5.37202
 C    82 -- C   352       -0.09      5.37202
 C   176 -- C   511       -0.09      5.37202
 C    81 -- C   351       -0.09      5.37202
 C   120 -- C   395       -0.09      5.37202
 C    55 -- C   385       -0.09      5.37202
 C   119 -- C   394       -0.09      5.37202
 C   118 -- C   393       -0.09      5.37202
 C   117 -- C   392       -0.09      5.37202
 C    54 -- C   384       -0.09      5.37202
 C   116 -- C   391       -0.09      5.37202
 C    53 -- C   383       -0.09      5.37202
 C    52 -- C   382       -0.09      5.37202
 C    51 -- C   381       -0.09      5.37202
 C   205 -- C   550       -0.09      5.37202
 C   204 -- C   549       -0.09      5.37202
 C   203 -- C   548       -0.09      5.37202
 C   202 -- C   547       -0.09      5.37202
 C   201 -- C   546       -0.09      5.37202
 C    95 -- C   365       -0.09      5.37202
 C    94 -- C   364       -0.09      5.37202
 C    93 -- C   363       -0.09      5.37202
 C    92 -- C   362       -0.09      5.37202
 C    91 -- C   361       -0.09      5.37202
 C    65 -- C   395       -0.09      5.37202
 C    64 -- C   394       -0.09      5.37202
 C    63 -- C   393       -0.09      5.37202
 C    30 -- C   355       -0.09      5.37202
 C    62 -- C   392       -0.09      5.37202
 C    61 -- C   391       -0.09      5.37202
 C    29 -- C   354       -0.09      5.37202
 C   260 -- C   550       -0.09      5.37202
 C   259 -- C   549       -0.09      5.37202
 C    28 -- C   353       -0.09      5.37202
 C   258 -- C   548       -0.09      5.37202
 C   257 -- C   547       -0.09      5.37202
 C   256 -- C   546       -0.09      5.37202
 C    27 -- C   352       -0.09      5.37202
 C    26 -- C   351       -0.09      5.37202
 C    55 -- C   335       -0.09      5.37202
 C    54 -- C   334       -0.09      5.37202
 C    53 -- C   333       -0.09      5.37202
 C   230 -- C   580       -0.09      5.37202
 C   230 -- C   525       -0.09      5.37202
 C   229 -- C   579       -0.09      5.37202
 C   229 -- C   524       -0.09      5.37202
 C   228 -- C   578       -0.09      5.37202
 C    52 -- C   332       -0.09      5.37202
 C   228 -- C   523       -0.09      5.37202
 C   227 -- C   577       -0.09      5.37202
 C   227 -- C   522       -0.09      5.37202
 C   226 -- C   576       -0.09      5.37202
 C   226 -- C   521       -0.09      5.37202
 C    51 -- C   331       -0.09      5.37202
 C    23 -- C   478       -0.09      5.37202
 C    49 -- C   469       -0.09      5.37202
 C    11 -- C   331       -0.09      5.37202
 C    48 -- C   468       -0.09      5.37202
 C    47 -- C   467       -0.09      5.37202
 C    22 -- C   477       -0.09      5.37202
 C    46 -- C   466       -0.09      5.37202
 C    21 -- C   476       -0.09      5.37202
 C    40 -- C   365       -0.09      5.37202
 C    39 -- C   364       -0.09      5.37202
 C    38 -- C   363       -0.09      5.37202
 C    37 -- C   362       -0.09      5.37202
 C    36 -- C   361       -0.09      5.37202
 C    15 -- C   335       -0.09      5.37202
 C    65 -- C   345       -0.09      5.37202
 C    64 -- C   344       -0.09      5.37202
 C    63 -- C   343       -0.09      5.37202
 C    30 -- C   325       -0.09      5.37202
 C    14 -- C   334       -0.09      5.37202
 C    62 -- C   342       -0.09      5.37202
 C    61 -- C   341       -0.09      5.37202
 C    29 -- C   324       -0.09      5.37202
 C    28 -- C   323       -0.09      5.37202
 C    13 -- C   333       -0.09      5.37202
 C    27 -- C   322       -0.09      5.37202
 C    26 -- C   321       -0.09      5.37202
 C    25 -- C   480       -0.09      5.37202
 C    12 -- C   332       -0.09      5.37202
 C    24 -- C   479       -0.09      5.37202
 C    50 -- C   470       -0.09      5.37202
 C    24 -- C   449       -0.09      5.37202
 C     6 -- C   416       -0.09      5.37202
 C    23 -- C   448       -0.09      5.37202
 C    22 -- C   447       -0.09      5.37202
 C    10 -- C   470       -0.09      5.37202
 C     5 -- C   450       -0.09      5.37202
 C    21 -- C   446       -0.09      5.37202
 C    10 -- C   420       -0.09      5.37202
 C     9 -- C   469       -0.09      5.37202
 C     9 -- C   419       -0.09      5.37202
 C     8 -- C   468       -0.09      5.37202
 C     4 -- C   449       -0.09      5.37202
 C   150 -- C   440       -0.09      5.37202
 C   149 -- C   439       -0.09      5.37202
 C   148 -- C   438       -0.09      5.37202
 C   147 -- C   437       -0.09      5.37202
 C     8 -- C   418       -0.09      5.37202
 C   146 -- C   436       -0.09      5.37202
 C     2 -- C   447       -0.09      5.37202
 C   135 -- C   460       -0.09      5.37202
 C     7 -- C   467       -0.09      5.37202
 C   134 -- C   459       -0.09      5.37202
 C   133 -- C   458       -0.09      5.37202
 C   132 -- C   457       -0.09      5.37202
 C   131 -- C   456       -0.09      5.37202
 C     7 -- C   417       -0.09      5.37202
 C     1 -- C   446       -0.09      5.37202
 C     6 -- C   466       -0.09      5.37202
 C    25 -- C   450       -0.09      5.37202
 C     3 -- C   448       -0.09      5.37202
 C   106 -- C   436       -0.09      5.37202
 C   106 -- C   376       -0.09      5.37202
 C    80 -- C   410       -0.09      5.37202
 C    79 -- C   409       -0.09      5.37202
 C    78 -- C   408       -0.09      5.37202
 C    77 -- C   407       -0.09      5.37202
 C    76 -- C   406       -0.09      5.37202
 C   135 -- C   410       -0.09      5.37202
 C   134 -- C   409       -0.09      5.37202
 C   133 -- C   408       -0.09      5.37202
 C   132 -- C   407       -0.09      5.37202
 C   131 -- C   406       -0.09      5.37202
 C   110 -- C   440       -0.09      5.37202
 C   110 -- C   380       -0.09      5.37202
 C   109 -- C   439       -0.09      5.37202
 C   109 -- C   379       -0.09      5.37202
 C   108 -- C   438       -0.09      5.37202
 C   108 -- C   378       -0.09      5.37202
 C   107 -- C   437       -0.09      5.37202
 C   107 -- C   377       -0.09      5.37202
 C   215 -- C   635       -0.10      5.38000
 C   214 -- C   634       -0.10      5.38000
 C   213 -- C   633       -0.10      5.38000
 C   212 -- C   632       -0.10      5.38000
 C   211 -- C   631       -0.10      5.38000
 C   190 -- C   620       -0.10      5.38000
 C   189 -- C   619       -0.10      5.38000
 C   188 -- C   618       -0.10      5.38000
 C   187 -- C   617       -0.10      5.38000
 C   186 -- C   616       -0.10      5.38000
 C   175 -- C   595       -0.10      5.38000
 C   174 -- C   594       -0.10      5.38000
 C   173 -- C   593       -0.10      5.38000
 C   172 -- C   592       -0.10      5.38000
 C   171 -- C   591       -0.10      5.38000
 C   245 -- C   640       -0.09      5.38000
 C   244 -- C   639       -0.09      5.38000
 C   243 -- C   638       -0.09      5.38000
 C   242 -- C   637       -0.09      5.38000
 C   241 -- C   636       -0.09      5.38000
==================================================


=================== Orbital energy and occupancy information ===================

      Total number of orbitals:    2560
        Occupancy sum (kernel):    1280.000000001
   Occupancy sum (eigenvalues):    1280.000000001
                 HOMO-LUMO gap:       0.000020696 Eh
                 Mid-gap level:       0.313348266 Eh

                        Orbital | Energy (Eh) | Occupancy
                            1    -0.443938011   1.0000000
                        .......   ...........   .........
                         1272     0.246033644   0.9999864
                         1273     0.246441374   0.9999846
                         1274     0.246503576   0.9999843
                         1275     0.250255356   0.9999485
                         1276     0.250340609   0.9999471
                         1277     0.250694456   0.9999408
                         1278     0.250749234   0.9999398
                         1279     0.250779547   0.9999392
                         1280     0.251169223   0.9999312
                         1281     0.313337918   0.0000432
                        ....... -- gap at 0K -- .........
                         1282     0.313358614   0.0000429
                         1283     0.313590854   0.0000399
                         1284     0.313611395   0.0000396
                         1285     0.314580540   0.0000293
                         1286     0.314654550   0.0000286
                         1287     0.314852412   0.0000269
                         1288     0.314926352   0.0000263
                         1289     0.315420500   0.0000225
                         1290     0.315515692   0.0000216
                         1291     0.315561286   0.0000213
                        .......   ...........   .........
                         2560     1.171454409   0.0000000

================================================================================

===================== Writing canonical molecular orbitals =====================
| Orbital  Energy (eV)  Norm     |
| HOMO      8.52635860  1.000000 | Writing "3.1930128_GO_manual_4x64graphite_HOMO.cube" ... done
Writing "3.1930128_GO_manual_4x64graphite_HOMO.dx" ... done
| LUMO      8.52692176  1.000000 | Writing "3.1930128_GO_manual_4x64graphite_LUMO.cube" ... done
Writing "3.1930128_GO_manual_4x64graphite_LUMO.dx" ... done
================================================================================
 
===================== Density of States (DOS) calculation ======================
Writing "3.1930128_GO_manual_4x64graphite_DOS.txt" ...  done
================================================================================
 
Writing bands to file "3.1930128_GO_manual_4x64graphite.val_bands" ... done
 
================ Projected Density of States (pDOS) calculation ================
 
Constructing AM resolved functions  ...... done
Writing NGWF plot files in formats: CUBE DX ...  done
 
Performing overlap integrals ...  done
 
Computing pDOS weights ...  done
 
All bands spilling parameter =   3.91 %
Occupancy-weighted spilling parameter =   0.83 %
 
 => Outputting data for OptaDOS <=
 
Writing pDOS weights to file "3.1930128_GO_manual_4x64graphite.val_pdos_bin" ... done
 
Writing band gradients to file "3.1930128_GO_manual_4x64graphite.val_dome_bin" ... done
 
Writing Castep output cell file to "3.1930128_GO_manual_4x64graphite-out.cell" ... done
 
 => Computing Gaussian smeared pDOS <= 
Writing "3.1930128_GO_manual_4x64graphite_PDOS.txt" ...  done
 
 => Computing Occupancy-weighted Gaussian smeared pDOS <= 
Writing "3.1930128_GO_manual_4x64graphite_occ_PDOS.txt" ...  done
  => Band centres: 
 S band centre of group 1:  -15.525193 eV
 P band centre of group 1:   -8.420268 eV
  Band centres done. <=
  => Integrated number of electrons in each AM band: 
 S num electrons of group 1:  574.480950
 P num electrons of group 1: 1964.324249
  Integrated number of electrons done. <=
================================================================================

------------------------------ TIMING INFORMATION ------------------------------
AVERAGE TIME:    4488.798s on     40 node(s)                                    
TOTAL TIME:      4488.799s on     40 node(s)                                    
================= AVERAGE TIMINGS FROM ALL NODES (CUMULATIVE) ==================
|| TAG                                    #calls    cpu time   %total  Gflops ||
|| work_imbalance                       :     1        0.00s   0.000%  ------ ||
|| paw_tcore_density                    :     1        0.01s   0.000%  ------ ||
|| paw_tcore_hartree_on_grid            :     1        0.01s   0.000%  ------ ||
|| paw_sphere_density_on_grid           :     1        0.01s   0.000%  ------ ||
|| sparse_set_to_garbage                :   183        0.03s   0.001%  ------ ||
|| pseudo_make_structure_factor         :     1        0.05s   0.001%  ------ ||
|| paw_dij_hartree                      :   393        0.05s   0.001%  ------ ||
|| basis_extract_function_from_box      :  2048        0.09s   0.002%  ------ ||
|| paw_species_calc_proj_prec_mat       :     1        0.12s   0.003%  ------ ||
|| density_init_guess_real              :     1        0.21s   0.005%  ------ ||
|| paw_dataset_init                     :     1        0.25s   0.005%  ------ ||
|| ngwfs_initialise_from_radial         :     2        0.67s   0.015%  ------ ||
|| restart_kernel_write                 :    17        0.77s   0.017%  ------ ||
|| dense_normal_eigensolve              :     1        1.02s   0.023%  ------ ||
|| sparse_init                          :     1        1.07s   0.024%  ------ ||
|| hartree_on_grid                      :   294        1.32s   0.029%  ------ ||
|| ewald_calculate_energy               :     1        2.49s   0.055%  ------ ||
|| projectors_init_fftbox_recip         :   161        3.15s   0.070%  ------ ||
|| fourier_apply_box_pair               :  3040        5.03s   0.112% 560.394 ||
|| basis_copy_function_to_box           : 27904        6.01s   0.134%  ------ ||
|| sw_init                              :     1        6.73s   0.150%  ------ ||
|| augmentation_screen_dij              :   301        6.77s   0.151%  ------ ||
|| sparse_embed_hotelling_invert_embed  :    31        9.74s   0.217%  ------ ||
|| ngwf_gradient_coeffs                 :    16       13.05s   0.291%  ------ ||
|| fourier_apply_cell_backward          :  9085       16.70s   0.372%  60.603 ||
|| cell_grid_extract_box_real           : 11868       16.82s   0.375%  ------ ||
|| fourier_apply_cell_forward           :  8498       18.71s   0.417%  50.581 ||
|| sparse_trace                         :  3566       20.30s   0.452%  ------ ||
|| cell_grid_deposit_box_real           : 37808       25.21s   0.562%  ------ ||
|| paw_dij_xc                           :   393       28.19s   0.628%  ------ ||
|| aug_nonlocal_mat                     :   377       42.21s   0.940%  ------ ||
|| density_fftbox_deposit_to_cell       : 18816       50.56s   1.126%  ------ ||
|| eigenstates_pdos                     :     1       54.89s   1.223%  ------ ||
|| augmentation_density_on_grid         :   294       55.97s   1.247%  ------ ||
|| eigenstates_calculate                :     1       59.31s   1.321%  ------ ||
|| function_ops_brappd_ketppd           :    64       66.55s   1.483%  ------ ||
|| hamiltonian_energy_components        :     4       69.05s   1.538%  ------ ||
|| projectors_func_ovlp_box             :    32       79.70s   1.776%  ------ ||
|| nlxc_vdw_energy                      :   586       81.58s   1.817%  ------ ||
|| xc_energy_potential                  :   293       83.09s   1.851%  ------ ||
|| properties_calculate                 :     1      106.75s   2.378%  ------ ||
|| integrals_kinetic                    :    31      119.53s   2.663%  ------ ||
|| restart_ngwfs_tightbox_output        :    15      123.01s   2.740%  ------ ||
|| dense_eigensolve                     :   258      128.37s   2.860%  ------ ||
|| potential_apply_to_ngwf_batch        :   376      147.45s   3.285%  ------ ||
|| sparse_product                       :  3572      159.30s   3.549%  ------ ||
|| basis_dot_function_with_box          : 9.338M     253.03s   5.637%  ------ ||
|| fourier_apply_box                    : 87616      272.74s   6.076% 979.744 ||
|| edft_diag_ngwf_ham                   :   257      286.34s   6.379%  ------ ||
|| projectors_gradient_batch            :    64      300.68s   6.698%  ------ ||
|| density_fftbox_interpolate_multiply  : 18816      364.82s   8.127%  ------ ||
|| integrals_locpot_mat_els_batch       :   376      367.34s   8.183%  ------ ||
|| projectors_grad_precond_batch        :    64      443.62s   9.883%  ------ ||
|| density_batch_interp_deposit         :  1176      462.05s  10.293%  ------ ||
|| integrals_locpot_dbl_grid            :    94      516.73s  11.512%  ------ ||
|| edft_apply_smearing_operator         :   257      560.16s  12.479%  ------ ||
|| basis_add_function_to_box            : 26.03M     674.25s  15.021%  ------ ||
|| ngwf_gradient_build_batch            :    64      792.78s  17.661%  ------ ||
|| density_batch_row_sums               :  1176     1034.55s  23.047%  ------ ||
|| ngwf_gradient_batch                  :    64     1054.88s  23.500%  ------ ||
|| ngwf_gradient_lnv                    :    16     1090.67s  24.298%  ------ ||
|| density_on_dbl_grid                  :   294     1512.69s  33.699%  ------ ||
|| hamiltonian_lhxc_calculate           :   288     1628.93s  36.289%  ------ ||
|| edft_calculate                       :    16     2685.42s  59.825%  ------ ||
|| ngwf_cg_optimise                     :     1     4360.84s  97.149%  ------ ||
|| total_time                           :     1     4488.80s 100.000%  ------ ||
================================================================================
Overhead of generating timer report: 
- 0 ms averaging over threads,
- 6 ms ensuring consistency across MPI ranks,
- 0 ms printing in order.

Job completed: 21-02-2020 13:48 (-0000)

