 +---------------------------------------------------------------+
 |                                                               |
 |        ####### #     # ####### ####### ####### ######         |
 |        #     # ##    # #          #    #       #     #        |
 |        #     # # #   # #          #    #       #     #        |
 |        #     # #  #  # #####      #    #####   ######         |
 |        #     # #   # # #          #    #       #              |
 |        #     # #    ## #          #    #       #              |
 |        ####### #     # #######    #    ####### #              |
 |                                                               |
 |        Linear-Scaling Ab Initio Total Energy Program          |
 |                                                               |
 |          Release for academic collaborators of ODG            |
 |                                             Version 5.3.2.12  |
 |                                                               |
 +---------------------------------------------------------------+
 |                                                               |
 |  Authors:                                                     |
 |  Jacek Dziedzic, Peter D. Haynes, Nicholas D. M. Hine,        |
 |  Arash. A. Mostofi, Mike C. Payne and Chris-Kriton Skylaris   |
 |                                                               |
 |  Contributors:                                                |
 |  J. Aarons, L. Andrinopoulos, P. W. Avraam, R. A. Bell,       |
 |  A. Bhandari, G. A. Bramley, R. J. Charlton, S. J. Clark,     |
 |  R. J. Clements, G. C. Constantinescu, F. Corsetti,           |
 |  N. Corsini, O. Dieguez, S. M. M. Dubois, K. K. B. Duff,      |
 |  J. M. Escartin, A. Greco, H. Helal, Q. O. Hill, L. P. Lee,   |
 |  J.-H. Li, E. B. Linscott, G. Moynihan, D. D. O`Regan,        |
 |  O. K. Okan, M. J. S. Phipps, C. J. Pickard,                  |
 |  J. C. A. Prentice, M. I. J. Probert, L. E. Ratcliff,         |
 |  M. Robinson, A. Ruiz Serrano, J. S. Spencer, E. W. Tait,     |
 |  G. Teobaldi, D. Turban, V. Vitale, K. A. Wilkinson,          |
 |  C. Weber, J. C. Womack, N. Yeung and T. J. Zuehlsdorff       |
 |                                                               |
 |                                   Copyright (c) 2004-2020     |
 |                                                               |
 |  Please cite:                                                 |
 |  "Introducing ONETEP: Linear-scaling density functional       |
 |   simulations on parallel computers".                         |
 |   C.-K. Skylaris, P. D. Haynes, A. A. Mostofi, M. C. Payne.   |
 |   J. Chem. Phys. 122 084119 (2005).                           |
 |                                                               |
 |          in all publications arising from your use of ONETEP. |
 |                                                               |
 +---------------------------------------------------------------+
 |                                                               |
 |   ONETEP is based on developments described in the following  |
 |   publications:                                               |
 |                                                               |
 |  "Nonorthogonal generalized Wannier function pseudopotential  |
 |   plane-wave method".                                         |
 |   C.-K. Skylaris, A. A. Mostofi, P. D. Haynes, O. Dieguez,    |
 |   M. C. Payne.                                                |
 |   Phys. Rev. B 66 035119 (2002).                              |
 |                                                               |
 |  "Preconditioned iterative minimization for linear-scaling    |
 |   electronic structure calculations".                         |
 |   A. A. Mostofi, P. D. Haynes, C.-K. Skylaris, M. C. Payne.   |
 |   J. Chem. Phys. 119(17), pp.8842-8848 (2003).                |
 |                                                               |
 |  "Total-energy calculations on a real space grid with         |
 |   localized functions and a plane-wave basis".                |
 |   A. A. Mostofi, C.-K. Skylaris, P. D. Haynes, M. C. Payne.   |
 |   Comput. Phys. Commun. 147, pp.788-802 (2002).               |
 |                                                               |
 |  "Accurate kinetic energy evaluation in electronic structure  |
 |   calculations with localized functions on real space grids"  |
 |   C.-K. Skylaris, A. A. Mostofi, P. D. Haynes, C. J. Pickard, |
 |   M. C. Payne.                                                |
 |   Comput. Phys. Commun. 140, pp.315-322 (2001).               |
 |                                                               |
 |  "Accurate ionic forces and geometry optimization in linear-  |
 |   scaling density-functional theory with local orbitals"      |
 |   N. D. M. Hine, M. Robinson, P. D. Haynes, C.-K. Skylaris,   |
 |   M. C. Payne, and A. A. Mostofi.                             |
 |   Phys. Rev. B 83 195102 (2011).                              |
 |                                                               |
 +---------------------------------------------------------------+

Job started: 21-02-2020 12:54 (-0000)
 
Reading parameters from file "3.219844_GO_manual_4x64graphite.dat" ...

WARNING: "cutoff_energy" not specified, but "psinc_spacing" specified.
         Using the latter to set the KE cutoff energy to  732.32021eV,
         thus *overriding* the default.

... done

If your calculation crashes here, before "Checking processes and threads..."
is displayed, then your stack size is insufficient.
If so, use "ulimit -s unlimited" at runtime.
You can disable this check with "check_stack_size F".

Checking processes and threads...
   Determining the default number of threads...
      No default threads set at compilation time: defaulting to 1.
      OpenMP library call suggests 4 threads.
      Hybrid MPI-OpenMP compilation detected.
      Number of MPI processes > 1.
      OMP_NUM_THREADS environment variable present and
      its value matches the one obtained from the OpenMP library call.
      Using this value as default.
      Default threads: 4
      Default applies to threads_max and threads_num_fftboxes.
      Settings in the input file override this default.
   ... done

   Running with 40 MPI processes.
   There are 10 MPI processes running on the same node as the root process.
   Each MPI process is using: 
               1 threads for simulation cell FFTs.
               1 threads for parallel FFT box operations.
               4 threads for loops over batched FFT box operations.
               4 threads in other parallel regions.
... done

Basic input checks...
Resetting ngwf_cg_rotate to TRUE for EDFT calculations
... done

Reading geometry and species blocks from file "3.219844_GO_manual_4x64graphite.dat" ...
    
  PSINC grid spacing along a1 set to   0.511215680000a0 from input file.
  PSINC grid spacing along a2 set to   0.531284090000a0 from input file.
  PSINC grid spacing along a3 set to   0.507052980000a0 from input file.
  Number of PPD points along a3 set to 1.  This is 
  the default value, it may have been provided also in the input file.
... done
 Writing xyz coordinates to file "3.219844_GO_manual_4x64graphite.xyz" ... done


--------------------------------------------------------------------------------
---------------------------------- INPUT FILE ----------------------------------
--------------------------------------------------------------------------------

task : singlepoint                                                              
do_properties : true                                                            
dx_format T                                                                     
edft T                                                                          
output_detail VERBOSE                                                           
write_xyz T                                                                     
xc_functional VV10                                                              
PSINC_SPACING 0.51121568 0.53128409 0.50705298                                  
paw T                                                                           
pdos_max_l = 2                                                                  
dos_smear  0.1 eV                                                               
popn_calculate T                                                                
PDOS_PSEUDOATOMIC T                                                             
PDOS_REDUCE_SWS F                                                               
PDOS_CONSTRUCT_BASIS F                                                          
PDOS_LOWDIN T                                                                   
PDOS_ORTH_ATOM_BLOCKS F                                                         
PDOS_LCAO_OPTIMIZE F                                                            
pdos_optados_output T                                                           
homo_plot 0                                                                     
lumo_plot 0                                                                     
homo_dens_plot -1                                                               
lumo_dens_plot -1                                                               
%BLOCK SPECIES                                                                  
C C 6 4 9.0                                                                     
%ENDBLOCK SPECIES                                                               
%BLOCK SPECIES_POT                                                              
C "~/pp/paw/c_pbe_abinit.paw"                                                   
%ENDBLOCK SPECIES_POT                                                           
%BLOCK SPECIES_ATOMIC_SET                                                       
C "SOLVE conf=2s2 2p2"                                                          
%ENDBLOCK SPECIES_ATOMIC_SET                                                    
%BLOCK LATTICE_CART                                                             
32.21  0.00  0.00                                                               
0.00 18.59  0.00                                                                
0.00  0.00 60.85                                                                
%ENDBLOCK LATTICE_CART                                                          
%BLOCK POSITIONS_ABS                                                            
C  0.00  0.00  3.04                                                             
C  0.00  0.00 15.21                                                             
C  0.00  0.00 27.38                                                             
C  0.00  0.00 39.55                                                             
C  0.00  0.00 51.72                                                             
C  0.00  4.65  3.04                                                             
C  0.00  4.65 15.21                                                             
C  0.00  4.65 27.38                                                             
C  0.00  4.65 39.55                                                             
C  0.00  4.65 51.72                                                             
C  4.03  2.32  3.04                                                             
C  4.03  2.32 15.21                                                             
C  4.03  2.32 27.38                                                             
C  4.03  2.32 39.55                                                             
C  4.03  2.32 51.72                                                             
C  8.05  0.00  3.04                                                             
C  8.05  0.00 15.21                                                             
C  8.05  0.00 27.38                                                             
C  8.05  0.00 39.55                                                             
C  8.05  0.00 51.72                                                             
C  0.00  9.30  3.04                                                             
C  0.00  9.30 15.21                                                             
C  0.00  9.30 27.38                                                             
C  0.00  9.30 39.55                                                             
C  0.00  9.30 51.72                                                             
C  4.03  6.97  3.04                                                             
C  4.03  6.97 15.21                                                             
C  4.03  6.97 27.38                                                             
C  4.03  6.97 39.55                                                             
C  4.03  6.97 51.72                                                             
C  8.05  4.65  3.04                                                             
C  8.05  4.65 15.21                                                             
C  8.05  4.65 27.38                                                             
C  8.05  4.65 39.55                                                             
C  8.05  4.65 51.72                                                             
C 12.08  2.32  3.04                                                             
C 12.08  2.32 15.21                                                             
C 12.08  2.32 27.38                                                             
C 12.08  2.32 39.55                                                             
C 12.08  2.32 51.72                                                             
C 16.10  0.00  3.04                                                             
C 16.10  0.00 15.21                                                             
C 16.10  0.00 27.38                                                             
C 16.10  0.00 39.55                                                             
C 16.10  0.00 51.72                                                             
C  0.00 13.95  3.04                                                             
C  0.00 13.95 15.21                                                             
C  0.00 13.95 27.38                                                             
C  0.00 13.95 39.55                                                             
C  0.00 13.95 51.72                                                             
C  4.03 11.62  3.04                                                             
C  4.03 11.62 15.21                                                             
C  4.03 11.62 27.38                                                             
C  4.03 11.62 39.55                                                             
C  4.03 11.62 51.72                                                             
C  8.05  9.30  3.04                                                             
C  8.05  9.30 15.21                                                             
C  8.05  9.30 27.38                                                             
C  8.05  9.30 39.55                                                             
C  8.05  9.30 51.72                                                             
C 12.08  6.97  3.04                                                             
C 12.08  6.97 15.21                                                             
C 12.08  6.97 27.38                                                             
C 12.08  6.97 39.55                                                             
C 12.08  6.97 51.72                                                             
C 16.10  4.65  3.04                                                             
C 16.10  4.65 15.21                                                             
C 16.10  4.65 27.38                                                             
C 16.10  4.65 39.55                                                             
C 16.10  4.65 51.72                                                             
C 20.13  2.32  3.04                                                             
C 20.13  2.32 15.21                                                             
C 20.13  2.32 27.38                                                             
C 20.13  2.32 39.55                                                             
C 20.13  2.32 51.72                                                             
C 24.16  0.00  3.04                                                             
C 24.16  0.00 15.21                                                             
C 24.16  0.00 27.38                                                             
C 24.16  0.00 39.55                                                             
C 24.16  0.00 51.72                                                             
C  4.03 16.27  3.04                                                             
C  4.03 16.27 15.21                                                             
C  4.03 16.27 27.38                                                             
C  4.03 16.27 39.55                                                             
C  4.03 16.27 51.72                                                             
C  8.05 13.95  3.04                                                             
C  8.05 13.95 15.21                                                             
C  8.05 13.95 27.38                                                             
C  8.05 13.95 39.55                                                             
C  8.05 13.95 51.72                                                             
C 12.08 11.62  3.04                                                             
C 12.08 11.62 15.21                                                             
C 12.08 11.62 27.38                                                             
C 12.08 11.62 39.55                                                             
C 12.08 11.62 51.72                                                             
C 16.10  9.30  3.04                                                             
C 16.10  9.30 15.21                                                             
C 16.10  9.30 27.38                                                             
C 16.10  9.30 39.55                                                             
C 16.10  9.30 51.72                                                             
C 20.13  6.97  3.04                                                             
C 20.13  6.97 15.21                                                             
C 20.13  6.97 27.38                                                             
C 20.13  6.97 39.55                                                             
C 20.13  6.97 51.72                                                             
C 24.16  4.65  3.04                                                             
C 24.16  4.65 15.21                                                             
C 24.16  4.65 27.38                                                             
C 24.16  4.65 39.55                                                             
C 24.16  4.65 51.72                                                             
C 28.18  2.32  3.04                                                             
C 28.18  2.32 15.21                                                             
C 28.18  2.32 27.38                                                             
C 28.18  2.32 39.55                                                             
C 28.18  2.32 51.72                                                             
C 12.08 16.27  3.04                                                             
C 12.08 16.27 15.21                                                             
C 12.08 16.27 27.38                                                             
C 12.08 16.27 39.55                                                             
C 12.08 16.27 51.72                                                             
C 16.10 13.95  3.04                                                             
C 16.10 13.95 15.21                                                             
C 16.10 13.95 27.38                                                             
C 16.10 13.95 39.55                                                             
C 16.10 13.95 51.72                                                             
C 20.13 11.62  3.04                                                             
C 20.13 11.62 15.21                                                             
C 20.13 11.62 27.38                                                             
C 20.13 11.62 39.55                                                             
C 20.13 11.62 51.72                                                             
C 24.16  9.30  3.04                                                             
C 24.16  9.30 15.21                                                             
C 24.16  9.30 27.38                                                             
C 24.16  9.30 39.55                                                             
C 24.16  9.30 51.72                                                             
C 28.18  6.97  3.04                                                             
C 28.18  6.97 15.21                                                             
C 28.18  6.97 27.38                                                             
C 28.18  6.97 39.55                                                             
C 28.18  6.97 51.72                                                             
C 20.13 16.27  3.04                                                             
C 20.13 16.27 15.21                                                             
C 20.13 16.27 27.38                                                             
C 20.13 16.27 39.55                                                             
C 20.13 16.27 51.72                                                             
C 24.16 13.95  3.04                                                             
C 24.16 13.95 15.21                                                             
C 24.16 13.95 27.38                                                             
C 24.16 13.95 39.55                                                             
C 24.16 13.95 51.72                                                             
C 28.18 11.62  3.04                                                             
C 28.18 11.62 15.21                                                             
C 28.18 11.62 27.38                                                             
C 28.18 11.62 39.55                                                             
C 28.18 11.62 51.72                                                             
C 28.18 16.27  3.04                                                             
C 28.18 16.27 15.21                                                             
C 28.18 16.27 27.38                                                             
C 28.18 16.27 39.55                                                             
C 28.18 16.27 51.72                                                             
C  0.00  0.00  9.13                                                             
C  0.00  0.00 21.30                                                             
C  0.00  0.00 33.47                                                             
C  0.00  0.00 45.63                                                             
C  0.00  0.00 57.80                                                             
C  0.00  4.65  9.13                                                             
C  0.00  4.65 21.30                                                             
C  0.00  4.65 33.47                                                             
C  0.00  4.65 45.63                                                             
C  0.00  4.65 57.80                                                             
C  4.03  2.32  9.13                                                             
C  4.03  2.32 21.30                                                             
C  4.03  2.32 33.47                                                             
C  4.03  2.32 45.63                                                             
C  4.03  2.32 57.80                                                             
C  8.05  0.00  9.13                                                             
C  8.05  0.00 21.30                                                             
C  8.05  0.00 33.47                                                             
C  8.05  0.00 45.63                                                             
C  8.05  0.00 57.80                                                             
C  0.00  9.30  9.13                                                             
C  0.00  9.30 21.30                                                             
C  0.00  9.30 33.47                                                             
C  0.00  9.30 45.63                                                             
C  0.00  9.30 57.80                                                             
C  4.03  6.97  9.13                                                             
C  4.03  6.97 21.30                                                             
C  4.03  6.97 33.47                                                             
C  4.03  6.97 45.63                                                             
C  4.03  6.97 57.80                                                             
C  8.05  4.65  9.13                                                             
C  8.05  4.65 21.30                                                             
C  8.05  4.65 33.47                                                             
C  8.05  4.65 45.63                                                             
C  8.05  4.65 57.80                                                             
C 12.08  2.32  9.13                                                             
C 12.08  2.32 21.30                                                             
C 12.08  2.32 33.47                                                             
C 12.08  2.32 45.63                                                             
C 12.08  2.32 57.80                                                             
C 16.10  0.00  9.13                                                             
C 16.10  0.00 21.30                                                             
C 16.10  0.00 33.47                                                             
C 16.10  0.00 45.63                                                             
C 16.10  0.00 57.80                                                             
C  0.00 13.95  9.13                                                             
C  0.00 13.95 21.30                                                             
C  0.00 13.95 33.47                                                             
C  0.00 13.95 45.63                                                             
C  0.00 13.95 57.80                                                             
C  4.03 11.62  9.13                                                             
C  4.03 11.62 21.30                                                             
C  4.03 11.62 33.47                                                             
C  4.03 11.62 45.63                                                             
C  4.03 11.62 57.80                                                             
C  8.05  9.30  9.13                                                             
C  8.05  9.30 21.30                                                             
C  8.05  9.30 33.47                                                             
C  8.05  9.30 45.63                                                             
C  8.05  9.30 57.80                                                             
C 12.08  6.97  9.13                                                             
C 12.08  6.97 21.30                                                             
C 12.08  6.97 33.47                                                             
C 12.08  6.97 45.63                                                             
C 12.08  6.97 57.80                                                             
C 16.10  4.65  9.13                                                             
C 16.10  4.65 21.30                                                             
C 16.10  4.65 33.47                                                             
C 16.10  4.65 45.63                                                             
C 16.10  4.65 57.80                                                             
C 20.13  2.32  9.13                                                             
C 20.13  2.32 21.30                                                             
C 20.13  2.32 33.47                                                             
C 20.13  2.32 45.63                                                             
C 20.13  2.32 57.80                                                             
C 24.16  0.00  9.13                                                             
C 24.16  0.00 21.30                                                             
C 24.16  0.00 33.47                                                             
C 24.16  0.00 45.63                                                             
C 24.16  0.00 57.80                                                             
C  4.03 16.27  9.13                                                             
C  4.03 16.27 21.30                                                             
C  4.03 16.27 33.47                                                             
C  4.03 16.27 45.63                                                             
C  4.03 16.27 57.80                                                             
C  8.05 13.95  9.13                                                             
C  8.05 13.95 21.30                                                             
C  8.05 13.95 33.47                                                             
C  8.05 13.95 45.63                                                             
C  8.05 13.95 57.80                                                             
C 12.08 11.62  9.13                                                             
C 12.08 11.62 21.30                                                             
C 12.08 11.62 33.47                                                             
C 12.08 11.62 45.63                                                             
C 12.08 11.62 57.80                                                             
C 16.10  9.30  9.13                                                             
C 16.10  9.30 21.30                                                             
C 16.10  9.30 33.47                                                             
C 16.10  9.30 45.63                                                             
C 16.10  9.30 57.80                                                             
C 20.13  6.97  9.13                                                             
C 20.13  6.97 21.30                                                             
C 20.13  6.97 33.47                                                             
C 20.13  6.97 45.63                                                             
C 20.13  6.97 57.80                                                             
C 24.16  4.65  9.13                                                             
C 24.16  4.65 21.30                                                             
C 24.16  4.65 33.47                                                             
C 24.16  4.65 45.63                                                             
C 24.16  4.65 57.80                                                             
C 28.18  2.32  9.13                                                             
C 28.18  2.32 21.30                                                             
C 28.18  2.32 33.47                                                             
C 28.18  2.32 45.63                                                             
C 28.18  2.32 57.80                                                             
C 12.08 16.27  9.13                                                             
C 12.08 16.27 21.30                                                             
C 12.08 16.27 33.47                                                             
C 12.08 16.27 45.63                                                             
C 12.08 16.27 57.80                                                             
C 16.10 13.95  9.13                                                             
C 16.10 13.95 21.30                                                             
C 16.10 13.95 33.47                                                             
C 16.10 13.95 45.63                                                             
C 16.10 13.95 57.80                                                             
C 20.13 11.62  9.13                                                             
C 20.13 11.62 21.30                                                             
C 20.13 11.62 33.47                                                             
C 20.13 11.62 45.63                                                             
C 20.13 11.62 57.80                                                             
C 24.16  9.30  9.13                                                             
C 24.16  9.30 21.30                                                             
C 24.16  9.30 33.47                                                             
C 24.16  9.30 45.63                                                             
C 24.16  9.30 57.80                                                             
C 28.18  6.97  9.13                                                             
C 28.18  6.97 21.30                                                             
C 28.18  6.97 33.47                                                             
C 28.18  6.97 45.63                                                             
C 28.18  6.97 57.80                                                             
C 20.13 16.27  9.13                                                             
C 20.13 16.27 21.30                                                             
C 20.13 16.27 33.47                                                             
C 20.13 16.27 45.63                                                             
C 20.13 16.27 57.80                                                             
C 24.16 13.95  9.13                                                             
C 24.16 13.95 21.30                                                             
C 24.16 13.95 33.47                                                             
C 24.16 13.95 45.63                                                             
C 24.16 13.95 57.80                                                             
C 28.18 11.62  9.13                                                             
C 28.18 11.62 21.30                                                             
C 28.18 11.62 33.47                                                             
C 28.18 11.62 45.63                                                             
C 28.18 11.62 57.80                                                             
C 28.18 16.27  9.13                                                             
C 28.18 16.27 21.30                                                             
C 28.18 16.27 33.47                                                             
C 28.18 16.27 45.63                                                             
C 28.18 16.27 57.80                                                             
C  1.34  2.32  3.04                                                             
C  1.34  2.32 15.21                                                             
C  1.34  2.32 27.38                                                             
C  1.34  2.32 39.55                                                             
C  1.34  2.32 51.72                                                             
C  5.37  0.00  3.04                                                             
C  5.37  0.00 15.21                                                             
C  5.37  0.00 27.38                                                             
C  5.37  0.00 39.55                                                             
C  5.37  0.00 51.72                                                             
C  1.34  6.97  3.04                                                             
C  1.34  6.97 15.21                                                             
C  1.34  6.97 27.38                                                             
C  1.34  6.97 39.55                                                             
C  1.34  6.97 51.72                                                             
C  5.37  4.65  3.04                                                             
C  5.37  4.65 15.21                                                             
C  5.37  4.65 27.38                                                             
C  5.37  4.65 39.55                                                             
C  5.37  4.65 51.72                                                             
C  9.39  2.32  3.04                                                             
C  9.39  2.32 15.21                                                             
C  9.39  2.32 27.38                                                             
C  9.39  2.32 39.55                                                             
C  9.39  2.32 51.72                                                             
C 13.42  0.00  3.04                                                             
C 13.42  0.00 15.21                                                             
C 13.42  0.00 27.38                                                             
C 13.42  0.00 39.55                                                             
C 13.42  0.00 51.72                                                             
C  1.34 11.62  3.04                                                             
C  1.34 11.62 15.21                                                             
C  1.34 11.62 27.38                                                             
C  1.34 11.62 39.55                                                             
C  1.34 11.62 51.72                                                             
C  5.37  9.30  3.04                                                             
C  5.37  9.30 15.21                                                             
C  5.37  9.30 27.38                                                             
C  5.37  9.30 39.55                                                             
C  5.37  9.30 51.72                                                             
C  9.39  6.97  3.04                                                             
C  9.39  6.97 15.21                                                             
C  9.39  6.97 27.38                                                             
C  9.39  6.97 39.55                                                             
C  9.39  6.97 51.72                                                             
C 13.42  4.65  3.04                                                             
C 13.42  4.65 15.21                                                             
C 13.42  4.65 27.38                                                             
C 13.42  4.65 39.55                                                             
C 13.42  4.65 51.72                                                             
C 17.45  2.32  3.04                                                             
C 17.45  2.32 15.21                                                             
C 17.45  2.32 27.38                                                             
C 17.45  2.32 39.55                                                             
C 17.45  2.32 51.72                                                             
C 21.47  0.00  3.04                                                             
C 21.47  0.00 15.21                                                             
C 21.47  0.00 27.38                                                             
C 21.47  0.00 39.55                                                             
C 21.47  0.00 51.72                                                             
C  1.34 16.27  3.04                                                             
C  1.34 16.27 15.21                                                             
C  1.34 16.27 27.38                                                             
C  1.34 16.27 39.55                                                             
C  1.34 16.27 51.72                                                             
C  5.37 13.95  3.04                                                             
C  5.37 13.95 15.21                                                             
C  5.37 13.95 27.38                                                             
C  5.37 13.95 39.55                                                             
C  5.37 13.95 51.72                                                             
C  9.39 11.62  3.04                                                             
C  9.39 11.62 15.21                                                             
C  9.39 11.62 27.38                                                             
C  9.39 11.62 39.55                                                             
C  9.39 11.62 51.72                                                             
C 13.42  9.30  3.04                                                             
C 13.42  9.30 15.21                                                             
C 13.42  9.30 27.38                                                             
C 13.42  9.30 39.55                                                             
C 13.42  9.30 51.72                                                             
C 17.45  6.97  3.04                                                             
C 17.45  6.97 15.21                                                             
C 17.45  6.97 27.38                                                             
C 17.45  6.97 39.55                                                             
C 17.45  6.97 51.72                                                             
C 21.47  4.65  3.04                                                             
C 21.47  4.65 15.21                                                             
C 21.47  4.65 27.38                                                             
C 21.47  4.65 39.55                                                             
C 21.47  4.65 51.72                                                             
C 25.50  2.32  3.04                                                             
C 25.50  2.32 15.21                                                             
C 25.50  2.32 27.38                                                             
C 25.50  2.32 39.55                                                             
C 25.50  2.32 51.72                                                             
C 29.52  0.00  3.04                                                             
C 29.52  0.00 15.21                                                             
C 29.52  0.00 27.38                                                             
C 29.52  0.00 39.55                                                             
C 29.52  0.00 51.72                                                             
C  9.39 16.27  3.04                                                             
C  9.39 16.27 15.21                                                             
C  9.39 16.27 27.38                                                             
C  9.39 16.27 39.55                                                             
C  9.39 16.27 51.72                                                             
C 13.42 13.95  3.04                                                             
C 13.42 13.95 15.21                                                             
C 13.42 13.95 27.38                                                             
C 13.42 13.95 39.55                                                             
C 13.42 13.95 51.72                                                             
C 17.45 11.62  3.04                                                             
C 17.45 11.62 15.21                                                             
C 17.45 11.62 27.38                                                             
C 17.45 11.62 39.55                                                             
C 17.45 11.62 51.72                                                             
C 21.47  9.30  3.04                                                             
C 21.47  9.30 15.21                                                             
C 21.47  9.30 27.38                                                             
C 21.47  9.30 39.55                                                             
C 21.47  9.30 51.72                                                             
C 25.50  6.97  3.04                                                             
C 25.50  6.97 15.21                                                             
C 25.50  6.97 27.38                                                             
C 25.50  6.97 39.55                                                             
C 25.50  6.97 51.72                                                             
C 29.52  4.65  3.04                                                             
C 29.52  4.65 15.21                                                             
C 29.52  4.65 27.38                                                             
C 29.52  4.65 39.55                                                             
C 29.52  4.65 51.72                                                             
C 17.45 16.27  3.04                                                             
C 17.45 16.27 15.21                                                             
C 17.45 16.27 27.38                                                             
C 17.45 16.27 39.55                                                             
C 17.45 16.27 51.72                                                             
C 21.47 13.95  3.04                                                             
C 21.47 13.95 15.21                                                             
C 21.47 13.95 27.38                                                             
C 21.47 13.95 39.55                                                             
C 21.47 13.95 51.72                                                             
C 25.50 11.62  3.04                                                             
C 25.50 11.62 15.21                                                             
C 25.50 11.62 27.38                                                             
C 25.50 11.62 39.55                                                             
C 25.50 11.62 51.72                                                             
C 29.52  9.30  3.04                                                             
C 29.52  9.30 15.21                                                             
C 29.52  9.30 27.38                                                             
C 29.52  9.30 39.55                                                             
C 29.52  9.30 51.72                                                             
C 25.50 16.27  3.04                                                             
C 25.50 16.27 15.21                                                             
C 25.50 16.27 27.38                                                             
C 25.50 16.27 39.55                                                             
C 25.50 16.27 51.72                                                             
C 29.52 13.95  3.04                                                             
C 29.52 13.95 15.21                                                             
C 29.52 13.95 27.38                                                             
C 29.52 13.95 39.55                                                             
C 29.52 13.95 51.72                                                             
C  2.68  0.00  9.13                                                             
C  2.68  0.00 21.30                                                             
C  2.68  0.00 33.47                                                             
C  2.68  0.00 45.63                                                             
C  2.68  0.00 57.80                                                             
C  2.68  4.65  9.13                                                             
C  2.68  4.65 21.30                                                             
C  2.68  4.65 33.47                                                             
C  2.68  4.65 45.63                                                             
C  2.68  4.65 57.80                                                             
C  6.71  2.32  9.13                                                             
C  6.71  2.32 21.30                                                             
C  6.71  2.32 33.47                                                             
C  6.71  2.32 45.63                                                             
C  6.71  2.32 57.80                                                             
C 10.74  0.00  9.13                                                             
C 10.74  0.00 21.30                                                             
C 10.74  0.00 33.47                                                             
C 10.74  0.00 45.63                                                             
C 10.74  0.00 57.80                                                             
C  2.68  9.30  9.13                                                             
C  2.68  9.30 21.30                                                             
C  2.68  9.30 33.47                                                             
C  2.68  9.30 45.63                                                             
C  2.68  9.30 57.80                                                             
C  6.71  6.97  9.13                                                             
C  6.71  6.97 21.30                                                             
C  6.71  6.97 33.47                                                             
C  6.71  6.97 45.63                                                             
C  6.71  6.97 57.80                                                             
C 10.74  4.65  9.13                                                             
C 10.74  4.65 21.30                                                             
C 10.74  4.65 33.47                                                             
C 10.74  4.65 45.63                                                             
C 10.74  4.65 57.80                                                             
C 14.76  2.32  9.13                                                             
C 14.76  2.32 21.30                                                             
C 14.76  2.32 33.47                                                             
C 14.76  2.32 45.63                                                             
C 14.76  2.32 57.80                                                             
C 18.79  0.00  9.13                                                             
C 18.79  0.00 21.30                                                             
C 18.79  0.00 33.47                                                             
C 18.79  0.00 45.63                                                             
C 18.79  0.00 57.80                                                             
C  2.68 13.95  9.13                                                             
C  2.68 13.95 21.30                                                             
C  2.68 13.95 33.47                                                             
C  2.68 13.95 45.63                                                             
C  2.68 13.95 57.80                                                             
C  6.71 11.62  9.13                                                             
C  6.71 11.62 21.30                                                             
C  6.71 11.62 33.47                                                             
C  6.71 11.62 45.63                                                             
C  6.71 11.62 57.80                                                             
C 10.74  9.30  9.13                                                             
C 10.74  9.30 21.30                                                             
C 10.74  9.30 33.47                                                             
C 10.74  9.30 45.63                                                             
C 10.74  9.30 57.80                                                             
C 14.76  6.97  9.13                                                             
C 14.76  6.97 21.30                                                             
C 14.76  6.97 33.47                                                             
C 14.76  6.97 45.63                                                             
C 14.76  6.97 57.80                                                             
C 18.79  4.65  9.13                                                             
C 18.79  4.65 21.30                                                             
C 18.79  4.65 33.47                                                             
C 18.79  4.65 45.63                                                             
C 18.79  4.65 57.80                                                             
C 22.81  2.32  9.13                                                             
C 22.81  2.32 21.30                                                             
C 22.81  2.32 33.47                                                             
C 22.81  2.32 45.63                                                             
C 22.81  2.32 57.80                                                             
C 26.84  0.00  9.13                                                             
C 26.84  0.00 21.30                                                             
C 26.84  0.00 33.47                                                             
C 26.84  0.00 45.63                                                             
C 26.84  0.00 57.80                                                             
C  6.71 16.27  9.13                                                             
C  6.71 16.27 21.30                                                             
C  6.71 16.27 33.47                                                             
C  6.71 16.27 45.63                                                             
C  6.71 16.27 57.80                                                             
C 10.74 13.95  9.13                                                             
C 10.74 13.95 21.30                                                             
C 10.74 13.95 33.47                                                             
C 10.74 13.95 45.63                                                             
C 10.74 13.95 57.80                                                             
C 14.76 11.62  9.13                                                             
C 14.76 11.62 21.30                                                             
C 14.76 11.62 33.47                                                             
C 14.76 11.62 45.63                                                             
C 14.76 11.62 57.80                                                             
C 18.79  9.30  9.13                                                             
C 18.79  9.30 21.30                                                             
C 18.79  9.30 33.47                                                             
C 18.79  9.30 45.63                                                             
C 18.79  9.30 57.80                                                             
C 22.81  6.97  9.13                                                             
C 22.81  6.97 21.30                                                             
C 22.81  6.97 33.47                                                             
C 22.81  6.97 45.63                                                             
C 22.81  6.97 57.80                                                             
C 26.84  4.65  9.13                                                             
C 26.84  4.65 21.30                                                             
C 26.84  4.65 33.47                                                             
C 26.84  4.65 45.63                                                             
C 26.84  4.65 57.80                                                             
C 30.86  2.32  9.13                                                             
C 30.86  2.32 21.30                                                             
C 30.86  2.32 33.47                                                             
C 30.86  2.32 45.63                                                             
C 30.86  2.32 57.80                                                             
C 14.76 16.27  9.13                                                             
C 14.76 16.27 21.30                                                             
C 14.76 16.27 33.47                                                             
C 14.76 16.27 45.63                                                             
C 14.76 16.27 57.80                                                             
C 18.79 13.95  9.13                                                             
C 18.79 13.95 21.30                                                             
C 18.79 13.95 33.47                                                             
C 18.79 13.95 45.63                                                             
C 18.79 13.95 57.80                                                             
C 22.81 11.62  9.13                                                             
C 22.81 11.62 21.30                                                             
C 22.81 11.62 33.47                                                             
C 22.81 11.62 45.63                                                             
C 22.81 11.62 57.80                                                             
C 26.84  9.30  9.13                                                             
C 26.84  9.30 21.30                                                             
C 26.84  9.30 33.47                                                             
C 26.84  9.30 45.63                                                             
C 26.84  9.30 57.80                                                             
C 30.86  6.97  9.13                                                             
C 30.86  6.97 21.30                                                             
C 30.86  6.97 33.47                                                             
C 30.86  6.97 45.63                                                             
C 30.86  6.97 57.80                                                             
C 22.81 16.27  9.13                                                             
C 22.81 16.27 21.30                                                             
C 22.81 16.27 33.47                                                             
C 22.81 16.27 45.63                                                             
C 22.81 16.27 57.80                                                             
C 26.84 13.95  9.13                                                             
C 26.84 13.95 21.30                                                             
C 26.84 13.95 33.47                                                             
C 26.84 13.95 45.63                                                             
C 26.84 13.95 57.80                                                             
C 30.86 11.62  9.13                                                             
C 30.86 11.62 21.30                                                             
C 30.86 11.62 33.47                                                             
C 30.86 11.62 45.63                                                             
C 30.86 11.62 57.80                                                             
C 30.86 16.27  9.13                                                             
C 30.86 16.27 21.30                                                             
C 30.86 16.27 33.47                                                             
C 30.86 16.27 45.63                                                             
C 30.86 16.27 57.80                                                             
%ENDBLOCK POSITIONS_ABS                                                         

--------------------------------------------------------------------------------
-------------------------------- END INPUT FILE --------------------------------
--------------------------------------------------------------------------------


 
<<<<<<<<<<<<<<<<<<<<<<<<<<<<<<<<< Full system >>>>>>>>>>>>>>>>>>>>>>>>>>>>>>>>>>
<<<<<<<<<<<<<<<<<<<<<<<<<<< PAW Dataset information >>>>>>>>>>>>>>>>>>>>>>>>>>>
File: ~/pp/paw/c_pbe_abinit.paw; rc = 1.25 bohr; shape type =  3; rshape = 1.25 bohr;
  Atomic number:  6;  ionic charge:  4.000000
    Partial Wave 1: l = 0
    Partial Wave 2: l = 0
    Partial Wave 3: l = 1
    Partial Wave 4: l = 1
  Core charge supplied for Nonlinear Core Corrections
<<<<<<<<<<<<<<<<<<<<<<<<<<<<<<<<<<<<<<< >>>>>>>>>>>>>>>>>>>>>>>>>>>>>>>>>>>>>>>

-------------------------- Atom counting information ---------------------------
Symbol    Natoms    Nngwfs    Nprojs
  C        640      2560      5120
.......   ......    ......    ......
Totals:    640      2560      5120
--------------------------------------------------------------------------------

=============================== PSINC grid sizes ===============================
                      Simulation cell:   63 x  35 x 120
                              FFT-box:   63 x  35 x 117
                                  PPD:    7 x   5 x   1
Grid space d1=  0.511269841270a0 (KE cutoff=  29.06054Eh = 790.77748eV)
Grid space d2=  0.531142857143a0 (KE cutoff=  26.92659Eh = 732.70972eV)
Grid space d3=  0.507083333333a0 (KE cutoff=  29.54237Eh = 803.88878eV)
================================================================================
  
WARNING in cell_grid_distribute:
Average of less than one 23-slab per node, so workload cannot be
equally balanced between nodes.

********************* Fourier parallelisation information **********************
       Coarse grid (whole simulation cell) dimensions:     63    35   120
          Real-space ('12') slabs/node (min max mean):      3     3     3
         Recip-space ('23') slabs/node (min max mean):      0     1     0
********************************************************************************

********************* Fourier parallelisation information **********************
       Double grid (whole simulation cell) dimensions:    126    70   240
          Real-space ('12') slabs/node (min max mean):      6     6     6
         Recip-space ('23') slabs/node (min max mean):      1     2     1
********************************************************************************

Atom SCF Calculation for C  : Z (AE atom) =   6 : Z (PS atom) =   4
Config String: 2s2 2p2
Orbitals (num,occ):  2     2.00 2.00
Orbitals   (num,l):  2        0    1
Real-space Grid (nr,dr,rmax): 1293    0.0069659443    9.0000000000
Spherical Bessel Basis (nsws,lmax,cutoff):   37    2  161.4736382572
Confining potential (l,width,scale):  0    3.0000000000  100.0000000000
Confining potential (l,width,scale):  1    3.0000000000  100.0000000000
  1         -5.4283124456   -1.2935102156    4.5135257941   -1.5923561795
  2         -5.4241534249   -1.3636937911    4.4427183619   -1.5694122055
  3         -5.4326289545   -1.3865748334    4.4195613881   -1.5634604620
  4         -5.4368073263   -1.3933479911    4.4127833993   -1.5619680687
  5         -5.4388652800   -1.3969668505    4.4091714945   -1.5612108736
  6         -5.4399077146   -1.3988848872    4.4072644158   -1.5608235486
  7         -5.4404434041   -1.3998980658    4.4062615348   -1.5606243010
  8         -5.4407208401   -1.4004325328    4.4057350952   -1.5605214507
  9         -5.4408651553   -1.4007143559    4.4054589454   -1.5604682523
 10         -5.4409404127   -1.4008629743    4.4053141024   -1.5604407028
 11         -5.4409797152   -1.4009413770    4.4052381126   -1.5604264250
 12         -5.4410002582   -1.4009827603    4.4051982277   -1.5604190215
 13         -5.4410110012   -1.4010046176    4.4051772812   -1.5604151811
 14         -5.4410166211   -1.4010161701    4.4051662735   -1.5604131883
 15         -5.4410195614   -1.4010222805    4.4051604845   -1.5604121539
 16         -5.4410211001   -1.4010255150    4.4051574379   -1.5604116169
 17         -5.4410219052   -1.4010272285    4.4051558332   -1.5604113379
 18         -5.4410223266   -1.4010281369    4.4051549874   -1.5604111930
 19         -5.4410225472   -1.4010286190    4.4051545411   -1.5604111177
 20         -5.4410226626   -1.4010288749    4.4051543055   -1.5604110786
 21         -5.4410227231   -1.4010290110    4.4051541810   -1.5604110582
Atom SCF converged after  21 iterations to a total energy of     -5.44102272

Determining parallel strategy ...
... using space-filling curve
... NGWF load balancing: max     64;  min     64;  average     64
... Projector load balancing: max    128;  min    128;  average    128
... done
Calculating Ewald energy ...
              Ewald: real-space energy =    9523.472672
        Ewald: reciprocal-space energy =       0.052232
         Ewald: (sum_charge)**2 Energy =   11469.549972
         Ewald: (sum_charge**2) Energy =     906.747541
                          Ewald Energy =   -2852.772608
Basis initialisation ...... NGWF spheres initialised
... Projector spheres initialised
... NGWF tight boxes initialised
... Projector tight boxes initialised
... Tight-boxes gathered
... NGWF basis size (local,global):     692756  27873568
... PAW projector initialisation
... done

============================= Charge Augmentation ==============================
                           Aug box size:   11 x  11 x  11
================================================================================

========================== Sparse matrix information ===========================
                        Overlap matrix filling:  44.38%
                        Density kernel filling: 100.00%
              NGWF-Proj overlap matrix filling:  13.12%
                    Aug Overlap matrix filling:  47.81%
                    Hamiltonian matrix filling:  47.81%
                  NGWF diagonal matrix filling:   0.16%
                             KS matrix filling: 100.00% 
                           KSKS matrix filling: 100.00% 
================================================================================

Sparse matrix initialisation ... done
NGWF initialisation ...... done
============ Calculation of NGWF S^-1 using Hotelling algorithm ================ 
         Iteration  |  Frobenius norm and Maximum abs value    (of I-S*S_n^-1)   
               1       0.49213578E+02     0.97797883E+00
               2       0.48089653E+02     0.95773499E+00
               3       0.46370572E+02     0.92161570E+00
               4       0.44093084E+02     0.86213752E+00
               5       0.41331901E+02     0.77339217E+00
               6       0.38066369E+02     0.68920893E+00
               7       0.34563021E+02     0.63931855E+00
               8       0.31207033E+02     0.59808158E+00
               9       0.27751040E+02     0.55663836E+00
              10       0.23486408E+02     0.49450399E+00
              11       0.17901027E+02     0.39389097E+00
              12       0.11223227E+02     0.25454884E+00
              13       0.49905577E+01     0.11213560E+00
              14       0.11743278E+01     0.24552221E-01
              15       0.77231914E-01     0.14265186E-02
              16       0.41255854E-03     0.60712739E-05
              17       0.17289268E-07     0.16137214E-09
              18       0.83951669E-13     0.35527137E-14
================================================================================
Calculating core density ...
================================= Core Density =================================
               Core den box size:   21 x  21 x  21
================================================================================
 ... done
Up spin density kernel initialisation ...... done

Writing density kernel to file "3.219844_GO_manual_4x64graphite.dkn" ... done

>>> Optimising kernel for current NGWFs:

--------------------------- Ensemble-DFT optimisation --------------------------
Running ScaLAPACK on   40 processor(s).

--------------------------------------------------------------------------------
  Iter                              Commutator    Free_energy(A=E-TS)     DeltaA
#    0                          0.000042482513   -3652.84205362315106  -3.65E+03

Step                       =       0.381966011250
Energy                     =   -3652.842012696357
Entropy (-TS)              =      -0.000040927132
Free energy (A=E-TS)       =   -3652.842053623151
Est. 0K Energy 0.5*(E+A)   =   -3652.842033159754
Residual Non-orthogonality =       0.000000000000
Residual N_electrons       =       0.000000000339

Spin          Integrated_Ne            Fermi_level     Delta_Fermi_level
   1      2559.999999998555         0.234506443870              2.35E-01

                           Spin 1          
     Orb      H-eigenvalues     Occupancies
       1 |    -0.4887213293    1.0000000000 | 
                          ------
    1276 |     0.2017011007    0.9999682983 | 
    1277 |     0.2023114030    0.9999615606 | 
    1278 |     0.2023157773    0.9999615075 | 
    1279 |     0.2027469876    0.9999558928 | 
    1280 |     0.2033500380    0.9999466410 | 
                 - Gap at zero temperature -
    1281 |     0.2680879243    0.0000248111 | 
    1282 |     0.2680935062    0.0000247674 | 
    1283 |     0.2682103393    0.0000238704 | 
    1284 |     0.2683163109    0.0000230848 | 
    1285 |     0.2683218769    0.0000230443 | 
                          ------
    2560 |     1.0670932279    0.0000000000 | 

                       |  Abs_value |  Threshold | Converged
     Delta_Free_energy |   3.65E+03 |   1.00E-06 |        No
     Delta_Energy      |   3.65E+03 |   1.00E-04 |        No
     Delta_Entropy     |   4.09E-05 |   1.00E-04 |       Yes
     Commutator        |   4.25E-05 |   1.00E-05 |        No
     Delta_Fermi_level |   2.35E-01 |   1.00E-03 |        No

  Line search of the free energy minimum:
  Step_type        Step             Free_energy   Predicted_free_energy
.   Initial    0.000000    -3652.84205362315106
.    Trial1    0.381966    -3652.84388070268596
.    Trial2    0.618034    -3652.84347467669886
. Quadratic    0.418273    -3652.84389426216103    -3652.84389457364841

--------------------------------------------------------------------------------
  Iter                              Commutator    Free_energy(A=E-TS)     DeltaA
#    1                          0.000019502390   -3652.84389426216103  -1.84E-03

Step                       =       0.418273169062
Energy                     =   -3652.843854118014
Entropy (-TS)              =      -0.000040144436
Free energy (A=E-TS)       =   -3652.843894262161
Est. 0K Energy 0.5*(E+A)   =   -3652.843874190087
Residual Non-orthogonality =       0.000000000000
Residual N_electrons       =       0.000000000289

Spin          Integrated_Ne            Fermi_level     Delta_Fermi_level
   1      2559.999999998778         0.236267781826              1.76E-03

                           Spin 1          
     Orb      H-eigenvalues     Occupancies
       1 |    -0.4875435038    1.0000000000 | 
                          ------
    1276 |     0.2034646460    0.9999682762 | 
    1277 |     0.2039556429    0.9999629560 | 
    1278 |     0.2039631142    0.9999628685 | 
    1279 |     0.2045287916    0.9999556068 | 
    1280 |     0.2050160208    0.9999482237 | 
                 - Gap at zero temperature -
    1281 |     0.2699001226    0.0000244158 | 
    1282 |     0.2699173453    0.0000242834 | 
    1283 |     0.2700526817    0.0000232675 | 
    1284 |     0.2701521925    0.0000225478 | 
    1285 |     0.2701920685    0.0000222657 | 
                          ------
    2560 |     1.0700383844    0.0000000000 | 

                       |  Abs_value |  Threshold | Converged
     Delta_Free_energy |   1.84E-03 |   1.00E-06 |        No
     Delta_Energy      |   1.84E-03 |   1.00E-04 |        No
     Delta_Entropy     |   7.83E-07 |   1.00E-04 |       Yes
     Commutator        |   1.95E-05 |   1.00E-05 |        No
     Delta_Fermi_level |   1.76E-03 |   1.00E-03 |        No

  Line search of the free energy minimum:
  Step_type        Step             Free_energy   Predicted_free_energy
.   Initial    0.000000    -3652.84389426216103
.    Trial1    0.418273    -3652.84417975937913
.    Trial2    0.640473    -3652.84381694816739
. Quadratic    0.303541    -3652.84422765945101    -3652.84422734689360

--------------------------------------------------------------------------------
  Iter                              Commutator    Free_energy(A=E-TS)     DeltaA
#    2                          0.000013325748   -3652.84422765945101  -3.33E-04

Step                       =       0.303540750075
Energy                     =   -3652.844187971529
Entropy (-TS)              =      -0.000039687361
Free energy (A=E-TS)       =   -3652.844227659451
Est. 0K Energy 0.5*(E+A)   =   -3652.844207815490
Residual Non-orthogonality =       0.000000000000
Residual N_electrons       =      -0.000000000561

Spin          Integrated_Ne            Fermi_level     Delta_Fermi_level
   1      2560.000000002368         0.236964861854              6.97E-04

                           Spin 1          
     Orb      H-eigenvalues     Occupancies
       1 |    -0.4870618810    1.0000000000 | 
                          ------
    1276 |     0.2041105613    0.9999687846 | 
    1277 |     0.2046250489    0.9999632783 | 
    1278 |     0.2046341408    0.9999631727 | 
    1279 |     0.2051691031    0.9999563955 | 
    1280 |     0.2056812936    0.9999487411 | 
                 - Gap at zero temperature -
    1281 |     0.2706405731    0.0000240838 | 
    1282 |     0.2706593654    0.0000239413 | 
    1283 |     0.2707937170    0.0000229468 | 
    1284 |     0.2708978954    0.0000222042 | 
    1285 |     0.2709407267    0.0000219060 | 
                          ------
    2560 |     1.0712596782    0.0000000000 | 

                       |  Abs_value |  Threshold | Converged
     Delta_Free_energy |   3.33E-04 |   1.00E-06 |        No
     Delta_Energy      |   3.34E-04 |   1.00E-04 |        No
     Delta_Entropy     |   4.57E-07 |   1.00E-04 |       Yes
     Commutator        |   1.33E-05 |   1.00E-05 |        No
     Delta_Fermi_level |   6.97E-04 |   1.00E-03 |       Yes

  Line search of the free energy minimum:
  Step_type        Step             Free_energy   Predicted_free_energy
.   Initial    0.000000    -3652.84422765945101
.    Trial1    0.303541    -3652.84436845986465
.    Trial2    0.569565    -3652.84419808596613
. Quadratic    0.271392    -3652.84437048785549    -3652.84437046373614

--------------------------------------------------------------------------------
  Iter                              Commutator    Free_energy(A=E-TS)     DeltaA
#    3                          0.000009322749   -3652.84437048785549  -1.43E-04

Step                       =       0.271392180900
Energy                     =   -3652.844331073046
Entropy (-TS)              =      -0.000039415337
Free energy (A=E-TS)       =   -3652.844370487855
Est. 0K Energy 0.5*(E+A)   =   -3652.844350780451
Residual Non-orthogonality =       0.000000000000
Residual N_electrons       =       0.000000000528

Spin          Integrated_Ne            Fermi_level     Delta_Fermi_level
   1      2559.999999997774         0.237400328726              4.35E-04

                           Spin 1          
     Orb      H-eigenvalues     Occupancies
       1 |    -0.4867583644    1.0000000000 | 
                          ------
    1276 |     0.2045212870    0.9999690275 | 
    1277 |     0.2050390193    0.9999635267 | 
    1278 |     0.2050485562    0.9999634167 | 
    1279 |     0.2055784003    0.9999567543 | 
    1280 |     0.2060942642    0.9999491039 | 
                 - Gap at zero temperature -
    1281 |     0.2711000860    0.0000239016 | 
    1282 |     0.2711192724    0.0000237572 | 
    1283 |     0.2712542949    0.0000227656 | 
    1284 |     0.2713563393    0.0000220437 | 
    1285 |     0.2714001464    0.0000217409 | 
                          ------
    2560 |     1.0720283623    0.0000000000 | 

                       |  Abs_value |  Threshold | Converged
     Delta_Free_energy |   1.43E-04 |   1.00E-06 |        No
     Delta_Energy      |   1.43E-04 |   1.00E-04 |        No
     Delta_Entropy     |   2.72E-07 |   1.00E-04 |       Yes
     Commutator        |   9.32E-06 |   1.00E-05 |       Yes
     Delta_Fermi_level |   4.35E-04 |   1.00E-03 |       Yes

  Line search of the free energy minimum:
  Step_type        Step             Free_energy   Predicted_free_energy
.   Initial    0.000000    -3652.84437048785549
.    Trial1    0.271392    -3652.84443984652262
.    Trial2    0.549696    -3652.84437531269577
. Quadratic    0.279797    -3652.84443990736008    -3652.84443990916225

--------------------------------------------------------------------------------
  Iter                              Commutator    Free_energy(A=E-TS)     DeltaA
#    4                          0.000006846589   -3652.84443990736008  -6.94E-05

Step                       =       0.279796871778
Energy                     =   -3652.844400691769
Entropy (-TS)              =      -0.000039215409
Free energy (A=E-TS)       =   -3652.844439907360
[...]
 C   160 -- C   385       -0.09      5.37000
 C   159 -- C   384       -0.09      5.37000
 C   158 -- C   383       -0.09      5.37000
 C   157 -- C   382       -0.09      5.37000
 C   156 -- C   381       -0.09      5.37000
 C   155 -- C   355       -0.10      5.37000
 C   154 -- C   354       -0.09      5.37000
 C   153 -- C   353       -0.10      5.37000
 C   152 -- C   352       -0.10      5.37000
 C   151 -- C   351       -0.10      5.37000
 C   140 -- C   335       -0.09      5.37000
 C   139 -- C   334       -0.09      5.37000
 C   138 -- C   333       -0.09      5.37000
 C   137 -- C   332       -0.09      5.37000
 C   136 -- C   331       -0.09      5.37000
 C   115 -- C   325       -0.09      5.37000
 C   114 -- C   324       -0.09      5.37000
 C   113 -- C   323       -0.09      5.37000
 C   112 -- C   322       -0.09      5.37000
 C   111 -- C   321       -0.09      5.37000
 C   219 -- C   569       -0.09      5.37202
 C   218 -- C   568       -0.09      5.37202
 C   217 -- C   567       -0.09      5.37202
 C   216 -- C   566       -0.09      5.37202
 C   250 -- C   540       -0.09      5.37202
 C   249 -- C   539       -0.09      5.37202
 C   248 -- C   538       -0.09      5.37202
 C   247 -- C   537       -0.09      5.37202
 C   246 -- C   536       -0.09      5.37202
 C   220 -- C   570       -0.09      5.37202
 C   285 -- C   580       -0.09      5.37202
 C   284 -- C   579       -0.09      5.37202
 C   283 -- C   578       -0.09      5.37202
 C   282 -- C   577       -0.09      5.37202
 C   281 -- C   576       -0.09      5.37202
 C   260 -- C   605       -0.09      5.37202
 C   259 -- C   604       -0.09      5.37202
 C   258 -- C   603       -0.09      5.37202
 C   257 -- C   602       -0.09      5.37202
 C   256 -- C   601       -0.09      5.37202
 C   220 -- C   515       -0.09      5.37202
 C   219 -- C   514       -0.09      5.37202
 C   218 -- C   513       -0.09      5.37202
 C   217 -- C   512       -0.09      5.37202
 C   216 -- C   511       -0.09      5.37202
 C   195 -- C   540       -0.09      5.37202
 C   195 -- C   500       -0.09      5.37202
 C   194 -- C   539       -0.09      5.37202
 C   194 -- C   499       -0.09      5.37202
 C   193 -- C   538       -0.09      5.37202
 C   193 -- C   498       -0.09      5.37202
 C   192 -- C   537       -0.09      5.37202
 C   192 -- C   497       -0.09      5.37202
 C   191 -- C   536       -0.09      5.37202
 C   191 -- C   496       -0.09      5.37202
 C   180 -- C   515       -0.09      5.37202
 C   179 -- C   514       -0.09      5.37202
 C   178 -- C   513       -0.09      5.37202
 C   177 -- C   512       -0.09      5.37202
 C   176 -- C   511       -0.09      5.37202
 C    11 -- C   331       -0.09      5.37202
 C   205 -- C   550       -0.09      5.37202
 C   204 -- C   549       -0.09      5.37202
 C   203 -- C   548       -0.09      5.37202
 C   202 -- C   547       -0.09      5.37202
 C   201 -- C   546       -0.09      5.37202
 C    95 -- C   425       -0.09      5.37202
 C    95 -- C   365       -0.09      5.37202
 C    94 -- C   424       -0.09      5.37202
 C    94 -- C   364       -0.09      5.37202
 C    93 -- C   423       -0.09      5.37202
 C    93 -- C   363       -0.09      5.37202
 C    92 -- C   422       -0.09      5.37202
 C    92 -- C   362       -0.09      5.37202
 C    91 -- C   421       -0.09      5.37202
 C    91 -- C   361       -0.09      5.37202
 C    40 -- C   365       -0.09      5.37202
 C    39 -- C   364       -0.09      5.37202
 C    38 -- C   363       -0.09      5.37202
 C    37 -- C   362       -0.09      5.37202
 C    36 -- C   361       -0.09      5.37202
 C    15 -- C   335       -0.09      5.37202
 C    65 -- C   395       -0.09      5.37202
 C    65 -- C   345       -0.09      5.37202
 C    64 -- C   394       -0.09      5.37202
 C    64 -- C   344       -0.09      5.37202
 C    63 -- C   393       -0.09      5.37202
 C    30 -- C   355       -0.09      5.37202
 C    63 -- C   343       -0.09      5.37202
 C    62 -- C   392       -0.09      5.37202
 C    30 -- C   325       -0.09      5.37202
 C    14 -- C   334       -0.09      5.37202
 C    62 -- C   342       -0.09      5.37202
 C    61 -- C   391       -0.09      5.37202
 C    29 -- C   354       -0.09      5.37202
 C    61 -- C   341       -0.09      5.37202
 C    29 -- C   324       -0.09      5.37202
 C   260 -- C   550       -0.09      5.37202
 C   259 -- C   549       -0.09      5.37202
 C    28 -- C   353       -0.09      5.37202
 C   258 -- C   548       -0.09      5.37202
 C   257 -- C   547       -0.09      5.37202
 C   256 -- C   546       -0.09      5.37202
 C    28 -- C   323       -0.09      5.37202
 C    27 -- C   352       -0.09      5.37202
 C    13 -- C   333       -0.09      5.37202
 C    27 -- C   322       -0.09      5.37202
 C   120 -- C   395       -0.09      5.37202
 C    26 -- C   351       -0.09      5.37202
 C   119 -- C   394       -0.09      5.37202
 C   118 -- C   393       -0.09      5.37202
 C    55 -- C   335       -0.09      5.37202
 C   117 -- C   392       -0.09      5.37202
 C    26 -- C   321       -0.09      5.37202
 C   116 -- C   391       -0.09      5.37202
 C    54 -- C   334       -0.09      5.37202
 C    12 -- C   332       -0.09      5.37202
 C    53 -- C   333       -0.09      5.37202
 C   230 -- C   580       -0.09      5.37202
 C   230 -- C   525       -0.09      5.37202
 C   229 -- C   579       -0.09      5.37202
 C   229 -- C   524       -0.09      5.37202
 C   228 -- C   578       -0.09      5.37202
 C    52 -- C   332       -0.09      5.37202
 C   228 -- C   523       -0.09      5.37202
 C   227 -- C   577       -0.09      5.37202
 C   227 -- C   522       -0.09      5.37202
 C   226 -- C   576       -0.09      5.37202
 C   226 -- C   521       -0.09      5.37202
 C    51 -- C   331       -0.09      5.37202
 C    23 -- C   478       -0.09      5.37202
 C    49 -- C   469       -0.09      5.37202
 C    48 -- C   468       -0.09      5.37202
 C    47 -- C   467       -0.09      5.37202
 C    22 -- C   477       -0.09      5.37202
 C    46 -- C   466       -0.09      5.37202
 C    21 -- C   476       -0.09      5.37202
 C    85 -- C   355       -0.09      5.37202
 C    84 -- C   354       -0.09      5.37202
 C    83 -- C   353       -0.09      5.37202
 C    82 -- C   352       -0.09      5.37202
 C    81 -- C   351       -0.09      5.37202
 C    55 -- C   385       -0.09      5.37202
 C    54 -- C   384       -0.09      5.37202
 C    25 -- C   480       -0.09      5.37202
 C    53 -- C   383       -0.09      5.37202
 C    52 -- C   382       -0.09      5.37202
 C    51 -- C   381       -0.09      5.37202
 C    24 -- C   479       -0.09      5.37202
 C    50 -- C   470       -0.09      5.37202
 C    24 -- C   449       -0.09      5.37202
 C     6 -- C   416       -0.09      5.37202
 C    23 -- C   448       -0.09      5.37202
 C    22 -- C   447       -0.09      5.37202
 C    10 -- C   470       -0.09      5.37202
 C     5 -- C   450       -0.09      5.37202
 C    21 -- C   446       -0.09      5.37202
 C    10 -- C   420       -0.09      5.37202
 C     9 -- C   469       -0.09      5.37202
 C     9 -- C   419       -0.09      5.37202
 C     8 -- C   468       -0.09      5.37202
 C     4 -- C   449       -0.09      5.37202
 C   150 -- C   440       -0.09      5.37202
 C   149 -- C   439       -0.09      5.37202
 C   148 -- C   438       -0.09      5.37202
 C   147 -- C   437       -0.09      5.37202
 C     8 -- C   418       -0.09      5.37202
 C   146 -- C   436       -0.09      5.37202
 C     2 -- C   447       -0.09      5.37202
 C   135 -- C   460       -0.09      5.37202
 C     7 -- C   467       -0.09      5.37202
 C   134 -- C   459       -0.09      5.37202
 C   133 -- C   458       -0.09      5.37202
 C   132 -- C   457       -0.09      5.37202
 C   131 -- C   456       -0.09      5.37202
 C     7 -- C   417       -0.09      5.37202
 C     1 -- C   446       -0.09      5.37202
 C     6 -- C   466       -0.09      5.37202
 C    25 -- C   450       -0.09      5.37202
 C     3 -- C   448       -0.09      5.37202
 C   106 -- C   436       -0.09      5.37202
 C   106 -- C   376       -0.09      5.37202
 C    80 -- C   410       -0.09      5.37202
 C    79 -- C   409       -0.09      5.37202
 C    78 -- C   408       -0.09      5.37202
 C    77 -- C   407       -0.09      5.37202
 C    76 -- C   406       -0.09      5.37202
 C   135 -- C   410       -0.09      5.37202
 C   134 -- C   409       -0.09      5.37202
 C   133 -- C   408       -0.09      5.37202
 C   132 -- C   407       -0.09      5.37202
 C   131 -- C   406       -0.09      5.37202
 C   110 -- C   440       -0.09      5.37202
 C   110 -- C   380       -0.09      5.37202
 C   109 -- C   439       -0.09      5.37202
 C   109 -- C   379       -0.09      5.37202
 C   108 -- C   438       -0.09      5.37202
 C   108 -- C   378       -0.09      5.37202
 C   107 -- C   437       -0.09      5.37202
 C   107 -- C   377       -0.09      5.37202
 C   215 -- C   635       -0.10      5.38000
 C   214 -- C   634       -0.10      5.38000
 C   213 -- C   633       -0.10      5.38000
 C   212 -- C   632       -0.10      5.38000
 C   211 -- C   631       -0.10      5.38000
 C   190 -- C   620       -0.10      5.38000
 C   189 -- C   619       -0.10      5.38000
 C   188 -- C   618       -0.10      5.38000
 C   187 -- C   617       -0.10      5.38000
 C   186 -- C   616       -0.10      5.38000
 C   175 -- C   595       -0.10      5.38000
 C   174 -- C   594       -0.10      5.38000
 C   173 -- C   593       -0.10      5.38000
 C   172 -- C   592       -0.10      5.38000
 C   171 -- C   591       -0.10      5.38000
 C   245 -- C   640       -0.09      5.38000
 C   244 -- C   639       -0.09      5.38000
 C   243 -- C   638       -0.09      5.38000
 C   242 -- C   637       -0.09      5.38000
 C   241 -- C   636       -0.09      5.38000
==================================================


=================== Orbital energy and occupancy information ===================

      Total number of orbitals:    2560
        Occupancy sum (kernel):    1279.999999999
   Occupancy sum (eigenvalues):    1279.999999999
                 HOMO-LUMO gap:       0.062274703 Eh
                 Mid-gap level:       0.278595879 Eh

                        Orbital | Energy (Eh) | Occupancy
                            1    -0.447159668   1.0000000
                        .......   ...........   .........
                         1271     0.242155485   0.9999870
                         1272     0.242212922   0.9999868
                         1273     0.242625837   0.9999850
                         1274     0.242683136   0.9999847
                         1275     0.246484762   0.9999491
                         1276     0.246486236   0.9999491
                         1277     0.246926787   0.9999415
                         1278     0.246928365   0.9999415
                         1279     0.247034269   0.9999395
                         1280     0.247458527   0.9999308
                        ....... -- gap at 0K -- .........
                         1281     0.309733230   0.0000415
                         1282     0.309749784   0.0000413
                         1283     0.309986037   0.0000383
                         1284     0.310002248   0.0000381
                         1285     0.310948093   0.0000284
                         1286     0.310954292   0.0000283
                         1287     0.311219230   0.0000261
                         1288     0.311225395   0.0000260
                         1289     0.311721078   0.0000223
                         1290     0.311758224   0.0000218
                        .......   ...........   .........
                         2560     1.167646371   0.0000000

================================================================================

===================== Writing canonical molecular orbitals =====================
| Orbital  Energy (eV)  Norm     |
| HOMO      6.73368916  1.000000 | Writing "3.219844_GO_manual_4x64graphite_HOMO.cube" ... done
Writing "3.219844_GO_manual_4x64graphite_HOMO.dx" ... done
| LUMO      8.42827006  1.000000 | Writing "3.219844_GO_manual_4x64graphite_LUMO.cube" ... done
Writing "3.219844_GO_manual_4x64graphite_LUMO.dx" ... done
================================================================================
 
===================== Density of States (DOS) calculation ======================
Writing "3.219844_GO_manual_4x64graphite_DOS.txt" ...  done
================================================================================
 
Writing bands to file "3.219844_GO_manual_4x64graphite.val_bands" ... done
 
================ Projected Density of States (pDOS) calculation ================
 
Constructing AM resolved functions  ...... done
Writing NGWF plot files in formats: CUBE DX ...  done
 
Performing overlap integrals ...  done
 
Computing pDOS weights ...  done
 
All bands spilling parameter =   3.92 %
Occupancy-weighted spilling parameter =   0.83 %
 
 => Outputting data for OptaDOS <=
 
Writing pDOS weights to file "3.219844_GO_manual_4x64graphite.val_pdos_bin" ... done
 
Writing band gradients to file "3.219844_GO_manual_4x64graphite.val_dome_bin" ... done
 
Writing Castep output cell file to "3.219844_GO_manual_4x64graphite-out.cell" ... done
 
 => Computing Gaussian smeared pDOS <= 
Writing "3.219844_GO_manual_4x64graphite_PDOS.txt" ...  done
 
 => Computing Occupancy-weighted Gaussian smeared pDOS <= 
Writing "3.219844_GO_manual_4x64graphite_occ_PDOS.txt" ...  done
  => Band centres: 
 S band centre of group 1:  -13.834683 eV
 P band centre of group 1:   -6.728304 eV
  Band centres done. <=
  => Integrated number of electrons in each AM band: 
 S num electrons of group 1:  574.439378
 P num electrons of group 1: 1964.209781
  Integrated number of electrons done. <=
================================================================================

------------------------------ TIMING INFORMATION ------------------------------
AVERAGE TIME:    4650.318s on     40 node(s)                                    
TOTAL TIME:      4650.318s on     40 node(s)                                    
================= AVERAGE TIMINGS FROM ALL NODES (CUMULATIVE) ==================
|| TAG                                    #calls    cpu time   %total  Gflops ||
|| work_imbalance                       :     1        0.00s   0.000%  ------ ||
|| paw_tcore_hartree_on_grid            :     1        0.01s   0.000%  ------ ||
|| paw_tcore_density                    :     1        0.01s   0.000%  ------ ||
|| paw_sphere_density_on_grid           :     1        0.02s   0.000%  ------ ||
|| sparse_set_to_garbage                :   183        0.03s   0.001%  ------ ||
|| paw_dij_hartree                      :   405        0.05s   0.001%  ------ ||
|| pseudo_make_structure_factor         :     1        0.05s   0.001%  ------ ||
|| basis_extract_function_from_box      :  2048        0.09s   0.002%  ------ ||
|| paw_species_calc_proj_prec_mat       :     1        0.12s   0.003%  ------ ||
|| paw_dataset_init                     :     1        0.15s   0.003%  ------ ||
|| density_init_guess_real              :     1        0.26s   0.006%  ------ ||
|| ngwfs_initialise_from_radial         :     2        0.67s   0.014%  ------ ||
|| restart_kernel_write                 :    17        0.77s   0.017%  ------ ||
|| sparse_init                          :     1        0.96s   0.021%  ------ ||
|| dense_normal_eigensolve              :     1        0.99s   0.021%  ------ ||
|| hartree_on_grid                      :   303        1.21s   0.026%  ------ ||
|| ewald_calculate_energy               :     1        2.37s   0.051%  ------ ||
|| projectors_init_fftbox_recip         :   161        3.12s   0.067%  ------ ||
|| fourier_apply_box_pair               :  3040        5.02s   0.108% 561.228 ||
|| basis_copy_function_to_box           : 28672        6.18s   0.133%  ------ ||
|| augmentation_screen_dij              :   310        6.64s   0.143%  ------ ||
|| sw_init                              :     1        6.73s   0.145%  ------ ||
|| sparse_embed_hotelling_invert_embed  :    31        9.73s   0.209%  ------ ||
|| ngwf_gradient_coeffs                 :    16       12.83s   0.276%  ------ ||
|| fourier_apply_cell_backward          :  9364       16.42s   0.353%  64.084 ||
|| fourier_apply_cell_forward           :  8759       17.36s   0.373%  56.693 ||
|| cell_grid_extract_box_real           : 12204       18.94s   0.407%  ------ ||
|| sparse_trace                         :  3680       21.98s   0.473%  ------ ||
|| paw_dij_xc                           :   405       29.11s   0.626%  ------ ||
|| cell_grid_deposit_box_real           : 38960       30.44s   0.655%  ------ ||
|| aug_nonlocal_mat                     :   389       43.32s   0.932%  ------ ||
|| eigenstates_pdos                     :     1       54.75s   1.177%  ------ ||
|| augmentation_density_on_grid         :   303       56.64s   1.218%  ------ ||
|| eigenstates_calculate                :     1       59.14s   1.272%  ------ ||
|| density_fftbox_deposit_to_cell       : 19392       64.05s   1.377%  ------ ||
|| hamiltonian_energy_components        :     4       70.29s   1.511%  ------ ||
|| function_ops_brappd_ketppd           :    64       70.80s   1.522%  ------ ||
|| projectors_func_ovlp_box             :    32       79.05s   1.700%  ------ ||
|| nlxc_vdw_energy                      :   604       79.89s   1.718%  ------ ||
|| xc_energy_potential                  :   302       83.42s   1.794%  ------ ||
|| properties_calculate                 :     1      106.80s   2.297%  ------ ||
|| restart_ngwfs_tightbox_output        :    15      118.55s   2.549%  ------ ||
|| integrals_kinetic                    :    31      123.94s   2.665%  ------ ||
|| dense_eigensolve                     :   267      128.47s   2.763%  ------ ||
|| potential_apply_to_ngwf_batch        :   388      158.15s   3.401%  ------ ||
|| sparse_product                       :  3665      162.09s   3.486%  ------ ||
|| basis_dot_function_with_box          : 9.556M     257.04s   5.527%  ------ ||
|| fourier_apply_box                    : 89872      279.96s   6.020% 980.775 ||
|| edft_diag_ngwf_ham                   :   266      292.03s   6.280%  ------ ||
|| projectors_gradient_batch            :    64      299.82s   6.447%  ------ ||
|| density_fftbox_interpolate_multiply  : 19392      375.79s   8.081%  ------ ||
|| integrals_locpot_mat_els_batch       :   388      389.45s   8.375%  ------ ||
|| projectors_grad_precond_batch        :    64      444.52s   9.559%  ------ ||
|| density_batch_interp_deposit         :  1212      494.71s  10.638%  ------ ||
|| integrals_locpot_dbl_grid            :    97      549.59s  11.818%  ------ ||
|| edft_apply_smearing_operator         :   266      576.50s  12.397%  ------ ||
|| basis_add_function_to_box            : 26.68M     684.30s  14.715%  ------ ||
|| ngwf_gradient_build_batch            :    64      793.40s  17.061%  ------ ||
|| ngwf_gradient_batch                  :    64     1056.71s  22.723%  ------ ||
|| ngwf_gradient_lnv                    :    16     1093.40s  23.512%  ------ ||
|| density_batch_row_sums               :  1212     1105.70s  23.777%  ------ ||
|| density_on_dbl_grid                  :   303     1615.36s  34.737%  ------ ||
|| hamiltonian_lhxc_calculate           :   297     1731.36s  37.231%  ------ ||
|| edft_calculate                       :    16     2836.35s  60.993%  ------ ||
|| ngwf_cg_optimise                     :     1     4522.53s  97.252%  ------ ||
|| total_time                           :     1     4650.32s 100.000%  ------ ||
================================================================================
Overhead of generating timer report: 
- 0 ms averaging over threads,
- 6 ms ensuring consistency across MPI ranks,
- 0 ms printing in order.

Job completed: 21-02-2020 14:12 (-0000)

