 +---------------------------------------------------------------+
 |                                                               |
 |        ####### #     # ####### ####### ####### ######         |
 |        #     # ##    # #          #    #       #     #        |
 |        #     # # #   # #          #    #       #     #        |
 |        #     # #  #  # #####      #    #####   ######         |
 |        #     # #   # # #          #    #       #              |
 |        #     # #    ## #          #    #       #              |
 |        ####### #     # #######    #    ####### #              |
 |                                                               |
 |        Linear-Scaling Ab Initio Total Energy Program          |
 |                                                               |
 |          Release for academic collaborators of ODG            |
 |                                             Version 5.3.2.12  |
 |                                                               |
 +---------------------------------------------------------------+
 |                                                               |
 |  Authors:                                                     |
 |  Jacek Dziedzic, Peter D. Haynes, Nicholas D. M. Hine,        |
 |  Arash. A. Mostofi, Mike C. Payne and Chris-Kriton Skylaris   |
 |                                                               |
 |  Contributors:                                                |
 |  J. Aarons, L. Andrinopoulos, P. W. Avraam, R. A. Bell,       |
 |  A. Bhandari, G. A. Bramley, R. J. Charlton, S. J. Clark,     |
 |  R. J. Clements, G. C. Constantinescu, F. Corsetti,           |
 |  N. Corsini, O. Dieguez, S. M. M. Dubois, K. K. B. Duff,      |
 |  J. M. Escartin, A. Greco, H. Helal, Q. O. Hill, L. P. Lee,   |
 |  J.-H. Li, E. B. Linscott, G. Moynihan, D. D. O`Regan,        |
 |  O. K. Okan, M. J. S. Phipps, C. J. Pickard,                  |
 |  J. C. A. Prentice, M. I. J. Probert, L. E. Ratcliff,         |
 |  M. Robinson, A. Ruiz Serrano, J. S. Spencer, E. W. Tait,     |
 |  G. Teobaldi, D. Turban, V. Vitale, K. A. Wilkinson,          |
 |  C. Weber, J. C. Womack, N. Yeung and T. J. Zuehlsdorff       |
 |                                                               |
 |                                   Copyright (c) 2004-2020     |
 |                                                               |
 |  Please cite:                                                 |
 |  "Introducing ONETEP: Linear-scaling density functional       |
 |   simulations on parallel computers".                         |
 |   C.-K. Skylaris, P. D. Haynes, A. A. Mostofi, M. C. Payne.   |
 |   J. Chem. Phys. 122 084119 (2005).                           |
 |                                                               |
 |          in all publications arising from your use of ONETEP. |
 |                                                               |
 +---------------------------------------------------------------+
 |                                                               |
 |   ONETEP is based on developments described in the following  |
 |   publications:                                               |
 |                                                               |
 |  "Nonorthogonal generalized Wannier function pseudopotential  |
 |   plane-wave method".                                         |
 |   C.-K. Skylaris, A. A. Mostofi, P. D. Haynes, O. Dieguez,    |
 |   M. C. Payne.                                                |
 |   Phys. Rev. B 66 035119 (2002).                              |
 |                                                               |
 |  "Preconditioned iterative minimization for linear-scaling    |
 |   electronic structure calculations".                         |
 |   A. A. Mostofi, P. D. Haynes, C.-K. Skylaris, M. C. Payne.   |
 |   J. Chem. Phys. 119(17), pp.8842-8848 (2003).                |
 |                                                               |
 |  "Total-energy calculations on a real space grid with         |
 |   localized functions and a plane-wave basis".                |
 |   A. A. Mostofi, C.-K. Skylaris, P. D. Haynes, M. C. Payne.   |
 |   Comput. Phys. Commun. 147, pp.788-802 (2002).               |
 |                                                               |
 |  "Accurate kinetic energy evaluation in electronic structure  |
 |   calculations with localized functions on real space grids"  |
 |   C.-K. Skylaris, A. A. Mostofi, P. D. Haynes, C. J. Pickard, |
 |   M. C. Payne.                                                |
 |   Comput. Phys. Commun. 140, pp.315-322 (2001).               |
 |                                                               |
 |  "Accurate ionic forces and geometry optimization in linear-  |
 |   scaling density-functional theory with local orbitals"      |
 |   N. D. M. Hine, M. Robinson, P. D. Haynes, C.-K. Skylaris,   |
 |   M. C. Payne, and A. A. Mostofi.                             |
 |   Phys. Rev. B 83 195102 (2011).                              |
 |                                                               |
 +---------------------------------------------------------------+

Job started: 21-02-2020 13:09 (-0000)
 
Reading parameters from file "3.22252712_GO_manual_4x64graphite.dat" ...

WARNING: "cutoff_energy" not specified, but "psinc_spacing" specified.
         Using the latter to set the KE cutoff energy to  732.32021eV,
         thus *overriding* the default.

... done

If your calculation crashes here, before "Checking processes and threads..."
is displayed, then your stack size is insufficient.
If so, use "ulimit -s unlimited" at runtime.
You can disable this check with "check_stack_size F".

Checking processes and threads...
   Determining the default number of threads...
      No default threads set at compilation time: defaulting to 1.
      OpenMP library call suggests 4 threads.
      Hybrid MPI-OpenMP compilation detected.
      Number of MPI processes > 1.
      OMP_NUM_THREADS environment variable present and
      its value matches the one obtained from the OpenMP library call.
      Using this value as default.
      Default threads: 4
      Default applies to threads_max and threads_num_fftboxes.
      Settings in the input file override this default.
   ... done

   Running with 40 MPI processes.
   There are 10 MPI processes running on the same node as the root process.
   Each MPI process is using: 
               1 threads for simulation cell FFTs.
               1 threads for parallel FFT box operations.
               4 threads for loops over batched FFT box operations.
               4 threads in other parallel regions.
... done

Basic input checks...
Resetting ngwf_cg_rotate to TRUE for EDFT calculations
... done

Reading geometry and species blocks from file "3.22252712_GO_manual_4x64graphite.dat" ...
    
  PSINC grid spacing along a1 set to   0.511215680000a0 from input file.
  PSINC grid spacing along a2 set to   0.531284090000a0 from input file.
  PSINC grid spacing along a3 set to   0.507475510000a0 from input file.
  Number of PPD points along a3 set to 1.  This is 
  the default value, it may have been provided also in the input file.
... done
 Writing xyz coordinates to file "3.22252712_GO_manual_4x64graphite.xyz" ... done


--------------------------------------------------------------------------------
---------------------------------- INPUT FILE ----------------------------------
--------------------------------------------------------------------------------

task : singlepoint                                                              
do_properties : true                                                            
dx_format T                                                                     
edft T                                                                          
output_detail VERBOSE                                                           
write_xyz T                                                                     
xc_functional VV10                                                              
PSINC_SPACING 0.51121568 0.53128409 0.50747551                                  
paw T                                                                           
pdos_max_l = 2                                                                  
dos_smear  0.1 eV                                                               
popn_calculate T                                                                
PDOS_PSEUDOATOMIC T                                                             
PDOS_REDUCE_SWS F                                                               
PDOS_CONSTRUCT_BASIS F                                                          
PDOS_LOWDIN T                                                                   
PDOS_ORTH_ATOM_BLOCKS F                                                         
PDOS_LCAO_OPTIMIZE F                                                            
pdos_optados_output T                                                           
homo_plot 0                                                                     
lumo_plot 0                                                                     
homo_dens_plot -1                                                               
lumo_dens_plot -1                                                               
%BLOCK SPECIES                                                                  
C C 6 4 9.0                                                                     
%ENDBLOCK SPECIES                                                               
%BLOCK SPECIES_POT                                                              
C "~/pp/paw/c_pbe_abinit.paw"                                                   
%ENDBLOCK SPECIES_POT                                                           
%BLOCK SPECIES_ATOMIC_SET                                                       
C "SOLVE conf=2s2 2p2"                                                          
%ENDBLOCK SPECIES_ATOMIC_SET                                                    
%BLOCK LATTICE_CART                                                             
32.21  0.00  0.00                                                               
0.00 18.59  0.00                                                                
0.00  0.00 60.90                                                                
%ENDBLOCK LATTICE_CART                                                          
%BLOCK POSITIONS_ABS                                                            
C  0.00  0.00  3.04                                                             
C  0.00  0.00 15.22                                                             
C  0.00  0.00 27.40                                                             
C  0.00  0.00 39.58                                                             
C  0.00  0.00 51.76                                                             
C  0.00  4.65  3.04                                                             
C  0.00  4.65 15.22                                                             
C  0.00  4.65 27.40                                                             
C  0.00  4.65 39.58                                                             
C  0.00  4.65 51.76                                                             
C  4.03  2.32  3.04                                                             
C  4.03  2.32 15.22                                                             
C  4.03  2.32 27.40                                                             
C  4.03  2.32 39.58                                                             
C  4.03  2.32 51.76                                                             
C  8.05  0.00  3.04                                                             
C  8.05  0.00 15.22                                                             
C  8.05  0.00 27.40                                                             
C  8.05  0.00 39.58                                                             
C  8.05  0.00 51.76                                                             
C  0.00  9.30  3.04                                                             
C  0.00  9.30 15.22                                                             
C  0.00  9.30 27.40                                                             
C  0.00  9.30 39.58                                                             
C  0.00  9.30 51.76                                                             
C  4.03  6.97  3.04                                                             
C  4.03  6.97 15.22                                                             
C  4.03  6.97 27.40                                                             
C  4.03  6.97 39.58                                                             
C  4.03  6.97 51.76                                                             
C  8.05  4.65  3.04                                                             
C  8.05  4.65 15.22                                                             
C  8.05  4.65 27.40                                                             
C  8.05  4.65 39.58                                                             
C  8.05  4.65 51.76                                                             
C 12.08  2.32  3.04                                                             
C 12.08  2.32 15.22                                                             
C 12.08  2.32 27.40                                                             
C 12.08  2.32 39.58                                                             
C 12.08  2.32 51.76                                                             
C 16.10  0.00  3.04                                                             
C 16.10  0.00 15.22                                                             
C 16.10  0.00 27.40                                                             
C 16.10  0.00 39.58                                                             
C 16.10  0.00 51.76                                                             
C  0.00 13.95  3.04                                                             
C  0.00 13.95 15.22                                                             
C  0.00 13.95 27.40                                                             
C  0.00 13.95 39.58                                                             
C  0.00 13.95 51.76                                                             
C  4.03 11.62  3.04                                                             
C  4.03 11.62 15.22                                                             
C  4.03 11.62 27.40                                                             
C  4.03 11.62 39.58                                                             
C  4.03 11.62 51.76                                                             
C  8.05  9.30  3.04                                                             
C  8.05  9.30 15.22                                                             
C  8.05  9.30 27.40                                                             
C  8.05  9.30 39.58                                                             
C  8.05  9.30 51.76                                                             
C 12.08  6.97  3.04                                                             
C 12.08  6.97 15.22                                                             
C 12.08  6.97 27.40                                                             
C 12.08  6.97 39.58                                                             
C 12.08  6.97 51.76                                                             
C 16.10  4.65  3.04                                                             
C 16.10  4.65 15.22                                                             
C 16.10  4.65 27.40                                                             
C 16.10  4.65 39.58                                                             
C 16.10  4.65 51.76                                                             
C 20.13  2.32  3.04                                                             
C 20.13  2.32 15.22                                                             
C 20.13  2.32 27.40                                                             
C 20.13  2.32 39.58                                                             
C 20.13  2.32 51.76                                                             
C 24.16  0.00  3.04                                                             
C 24.16  0.00 15.22                                                             
C 24.16  0.00 27.40                                                             
C 24.16  0.00 39.58                                                             
C 24.16  0.00 51.76                                                             
C  4.03 16.27  3.04                                                             
C  4.03 16.27 15.22                                                             
C  4.03 16.27 27.40                                                             
C  4.03 16.27 39.58                                                             
C  4.03 16.27 51.76                                                             
C  8.05 13.95  3.04                                                             
C  8.05 13.95 15.22                                                             
C  8.05 13.95 27.40                                                             
C  8.05 13.95 39.58                                                             
C  8.05 13.95 51.76                                                             
C 12.08 11.62  3.04                                                             
C 12.08 11.62 15.22                                                             
C 12.08 11.62 27.40                                                             
C 12.08 11.62 39.58                                                             
C 12.08 11.62 51.76                                                             
C 16.10  9.30  3.04                                                             
C 16.10  9.30 15.22                                                             
C 16.10  9.30 27.40                                                             
C 16.10  9.30 39.58                                                             
C 16.10  9.30 51.76                                                             
C 20.13  6.97  3.04                                                             
C 20.13  6.97 15.22                                                             
C 20.13  6.97 27.40                                                             
C 20.13  6.97 39.58                                                             
C 20.13  6.97 51.76                                                             
C 24.16  4.65  3.04                                                             
C 24.16  4.65 15.22                                                             
C 24.16  4.65 27.40                                                             
C 24.16  4.65 39.58                                                             
C 24.16  4.65 51.76                                                             
C 28.18  2.32  3.04                                                             
C 28.18  2.32 15.22                                                             
C 28.18  2.32 27.40                                                             
C 28.18  2.32 39.58                                                             
C 28.18  2.32 51.76                                                             
C 12.08 16.27  3.04                                                             
C 12.08 16.27 15.22                                                             
C 12.08 16.27 27.40                                                             
C 12.08 16.27 39.58                                                             
C 12.08 16.27 51.76                                                             
C 16.10 13.95  3.04                                                             
C 16.10 13.95 15.22                                                             
C 16.10 13.95 27.40                                                             
C 16.10 13.95 39.58                                                             
C 16.10 13.95 51.76                                                             
C 20.13 11.62  3.04                                                             
C 20.13 11.62 15.22                                                             
C 20.13 11.62 27.40                                                             
C 20.13 11.62 39.58                                                             
C 20.13 11.62 51.76                                                             
C 24.16  9.30  3.04                                                             
C 24.16  9.30 15.22                                                             
C 24.16  9.30 27.40                                                             
C 24.16  9.30 39.58                                                             
C 24.16  9.30 51.76                                                             
C 28.18  6.97  3.04                                                             
C 28.18  6.97 15.22                                                             
C 28.18  6.97 27.40                                                             
C 28.18  6.97 39.58                                                             
C 28.18  6.97 51.76                                                             
C 20.13 16.27  3.04                                                             
C 20.13 16.27 15.22                                                             
C 20.13 16.27 27.40                                                             
C 20.13 16.27 39.58                                                             
C 20.13 16.27 51.76                                                             
C 24.16 13.95  3.04                                                             
C 24.16 13.95 15.22                                                             
C 24.16 13.95 27.40                                                             
C 24.16 13.95 39.58                                                             
C 24.16 13.95 51.76                                                             
C 28.18 11.62  3.04                                                             
C 28.18 11.62 15.22                                                             
C 28.18 11.62 27.40                                                             
C 28.18 11.62 39.58                                                             
C 28.18 11.62 51.76                                                             
C 28.18 16.27  3.04                                                             
C 28.18 16.27 15.22                                                             
C 28.18 16.27 27.40                                                             
C 28.18 16.27 39.58                                                             
C 28.18 16.27 51.76                                                             
C  0.00  0.00  9.13                                                             
C  0.00  0.00 21.31                                                             
C  0.00  0.00 33.49                                                             
C  0.00  0.00 45.67                                                             
C  0.00  0.00 57.85                                                             
C  0.00  4.65  9.13                                                             
C  0.00  4.65 21.31                                                             
C  0.00  4.65 33.49                                                             
C  0.00  4.65 45.67                                                             
C  0.00  4.65 57.85                                                             
C  4.03  2.32  9.13                                                             
C  4.03  2.32 21.31                                                             
C  4.03  2.32 33.49                                                             
C  4.03  2.32 45.67                                                             
C  4.03  2.32 57.85                                                             
C  8.05  0.00  9.13                                                             
C  8.05  0.00 21.31                                                             
C  8.05  0.00 33.49                                                             
C  8.05  0.00 45.67                                                             
C  8.05  0.00 57.85                                                             
C  0.00  9.30  9.13                                                             
C  0.00  9.30 21.31                                                             
C  0.00  9.30 33.49                                                             
C  0.00  9.30 45.67                                                             
C  0.00  9.30 57.85                                                             
C  4.03  6.97  9.13                                                             
C  4.03  6.97 21.31                                                             
C  4.03  6.97 33.49                                                             
C  4.03  6.97 45.67                                                             
C  4.03  6.97 57.85                                                             
C  8.05  4.65  9.13                                                             
C  8.05  4.65 21.31                                                             
C  8.05  4.65 33.49                                                             
C  8.05  4.65 45.67                                                             
C  8.05  4.65 57.85                                                             
C 12.08  2.32  9.13                                                             
C 12.08  2.32 21.31                                                             
C 12.08  2.32 33.49                                                             
C 12.08  2.32 45.67                                                             
C 12.08  2.32 57.85                                                             
C 16.10  0.00  9.13                                                             
C 16.10  0.00 21.31                                                             
C 16.10  0.00 33.49                                                             
C 16.10  0.00 45.67                                                             
C 16.10  0.00 57.85                                                             
C  0.00 13.95  9.13                                                             
C  0.00 13.95 21.31                                                             
C  0.00 13.95 33.49                                                             
C  0.00 13.95 45.67                                                             
C  0.00 13.95 57.85                                                             
C  4.03 11.62  9.13                                                             
C  4.03 11.62 21.31                                                             
C  4.03 11.62 33.49                                                             
C  4.03 11.62 45.67                                                             
C  4.03 11.62 57.85                                                             
C  8.05  9.30  9.13                                                             
C  8.05  9.30 21.31                                                             
C  8.05  9.30 33.49                                                             
C  8.05  9.30 45.67                                                             
C  8.05  9.30 57.85                                                             
C 12.08  6.97  9.13                                                             
C 12.08  6.97 21.31                                                             
C 12.08  6.97 33.49                                                             
C 12.08  6.97 45.67                                                             
C 12.08  6.97 57.85                                                             
C 16.10  4.65  9.13                                                             
C 16.10  4.65 21.31                                                             
C 16.10  4.65 33.49                                                             
C 16.10  4.65 45.67                                                             
C 16.10  4.65 57.85                                                             
C 20.13  2.32  9.13                                                             
C 20.13  2.32 21.31                                                             
C 20.13  2.32 33.49                                                             
C 20.13  2.32 45.67                                                             
C 20.13  2.32 57.85                                                             
C 24.16  0.00  9.13                                                             
C 24.16  0.00 21.31                                                             
C 24.16  0.00 33.49                                                             
C 24.16  0.00 45.67                                                             
C 24.16  0.00 57.85                                                             
C  4.03 16.27  9.13                                                             
C  4.03 16.27 21.31                                                             
C  4.03 16.27 33.49                                                             
C  4.03 16.27 45.67                                                             
C  4.03 16.27 57.85                                                             
C  8.05 13.95  9.13                                                             
C  8.05 13.95 21.31                                                             
C  8.05 13.95 33.49                                                             
C  8.05 13.95 45.67                                                             
C  8.05 13.95 57.85                                                             
C 12.08 11.62  9.13                                                             
C 12.08 11.62 21.31                                                             
C 12.08 11.62 33.49                                                             
C 12.08 11.62 45.67                                                             
C 12.08 11.62 57.85                                                             
C 16.10  9.30  9.13                                                             
C 16.10  9.30 21.31                                                             
C 16.10  9.30 33.49                                                             
C 16.10  9.30 45.67                                                             
C 16.10  9.30 57.85                                                             
C 20.13  6.97  9.13                                                             
C 20.13  6.97 21.31                                                             
C 20.13  6.97 33.49                                                             
C 20.13  6.97 45.67                                                             
C 20.13  6.97 57.85                                                             
C 24.16  4.65  9.13                                                             
C 24.16  4.65 21.31                                                             
C 24.16  4.65 33.49                                                             
C 24.16  4.65 45.67                                                             
C 24.16  4.65 57.85                                                             
C 28.18  2.32  9.13                                                             
C 28.18  2.32 21.31                                                             
C 28.18  2.32 33.49                                                             
C 28.18  2.32 45.67                                                             
C 28.18  2.32 57.85                                                             
C 12.08 16.27  9.13                                                             
C 12.08 16.27 21.31                                                             
C 12.08 16.27 33.49                                                             
C 12.08 16.27 45.67                                                             
C 12.08 16.27 57.85                                                             
C 16.10 13.95  9.13                                                             
C 16.10 13.95 21.31                                                             
C 16.10 13.95 33.49                                                             
C 16.10 13.95 45.67                                                             
C 16.10 13.95 57.85                                                             
C 20.13 11.62  9.13                                                             
C 20.13 11.62 21.31                                                             
C 20.13 11.62 33.49                                                             
C 20.13 11.62 45.67                                                             
C 20.13 11.62 57.85                                                             
C 24.16  9.30  9.13                                                             
C 24.16  9.30 21.31                                                             
C 24.16  9.30 33.49                                                             
C 24.16  9.30 45.67                                                             
C 24.16  9.30 57.85                                                             
C 28.18  6.97  9.13                                                             
C 28.18  6.97 21.31                                                             
C 28.18  6.97 33.49                                                             
C 28.18  6.97 45.67                                                             
C 28.18  6.97 57.85                                                             
C 20.13 16.27  9.13                                                             
C 20.13 16.27 21.31                                                             
C 20.13 16.27 33.49                                                             
C 20.13 16.27 45.67                                                             
C 20.13 16.27 57.85                                                             
C 24.16 13.95  9.13                                                             
C 24.16 13.95 21.31                                                             
C 24.16 13.95 33.49                                                             
C 24.16 13.95 45.67                                                             
C 24.16 13.95 57.85                                                             
C 28.18 11.62  9.13                                                             
C 28.18 11.62 21.31                                                             
C 28.18 11.62 33.49                                                             
C 28.18 11.62 45.67                                                             
C 28.18 11.62 57.85                                                             
C 28.18 16.27  9.13                                                             
C 28.18 16.27 21.31                                                             
C 28.18 16.27 33.49                                                             
C 28.18 16.27 45.67                                                             
C 28.18 16.27 57.85                                                             
C  1.34  2.32  3.04                                                             
C  1.34  2.32 15.22                                                             
C  1.34  2.32 27.40                                                             
C  1.34  2.32 39.58                                                             
C  1.34  2.32 51.76                                                             
C  5.37  0.00  3.04                                                             
C  5.37  0.00 15.22                                                             
C  5.37  0.00 27.40                                                             
C  5.37  0.00 39.58                                                             
C  5.37  0.00 51.76                                                             
C  1.34  6.97  3.04                                                             
C  1.34  6.97 15.22                                                             
C  1.34  6.97 27.40                                                             
C  1.34  6.97 39.58                                                             
C  1.34  6.97 51.76                                                             
C  5.37  4.65  3.04                                                             
C  5.37  4.65 15.22                                                             
C  5.37  4.65 27.40                                                             
C  5.37  4.65 39.58                                                             
C  5.37  4.65 51.76                                                             
C  9.39  2.32  3.04                                                             
C  9.39  2.32 15.22                                                             
C  9.39  2.32 27.40                                                             
C  9.39  2.32 39.58                                                             
C  9.39  2.32 51.76                                                             
C 13.42  0.00  3.04                                                             
C 13.42  0.00 15.22                                                             
C 13.42  0.00 27.40                                                             
C 13.42  0.00 39.58                                                             
C 13.42  0.00 51.76                                                             
C  1.34 11.62  3.04                                                             
C  1.34 11.62 15.22                                                             
C  1.34 11.62 27.40                                                             
C  1.34 11.62 39.58                                                             
C  1.34 11.62 51.76                                                             
C  5.37  9.30  3.04                                                             
C  5.37  9.30 15.22                                                             
C  5.37  9.30 27.40                                                             
C  5.37  9.30 39.58                                                             
C  5.37  9.30 51.76                                                             
C  9.39  6.97  3.04                                                             
C  9.39  6.97 15.22                                                             
C  9.39  6.97 27.40                                                             
C  9.39  6.97 39.58                                                             
C  9.39  6.97 51.76                                                             
C 13.42  4.65  3.04                                                             
C 13.42  4.65 15.22                                                             
C 13.42  4.65 27.40                                                             
C 13.42  4.65 39.58                                                             
C 13.42  4.65 51.76                                                             
C 17.45  2.32  3.04                                                             
C 17.45  2.32 15.22                                                             
C 17.45  2.32 27.40                                                             
C 17.45  2.32 39.58                                                             
C 17.45  2.32 51.76                                                             
C 21.47  0.00  3.04                                                             
C 21.47  0.00 15.22                                                             
C 21.47  0.00 27.40                                                             
C 21.47  0.00 39.58                                                             
C 21.47  0.00 51.76                                                             
C  1.34 16.27  3.04                                                             
C  1.34 16.27 15.22                                                             
C  1.34 16.27 27.40                                                             
C  1.34 16.27 39.58                                                             
C  1.34 16.27 51.76                                                             
C  5.37 13.95  3.04                                                             
C  5.37 13.95 15.22                                                             
C  5.37 13.95 27.40                                                             
C  5.37 13.95 39.58                                                             
C  5.37 13.95 51.76                                                             
C  9.39 11.62  3.04                                                             
C  9.39 11.62 15.22                                                             
C  9.39 11.62 27.40                                                             
C  9.39 11.62 39.58                                                             
C  9.39 11.62 51.76                                                             
C 13.42  9.30  3.04                                                             
C 13.42  9.30 15.22                                                             
C 13.42  9.30 27.40                                                             
C 13.42  9.30 39.58                                                             
C 13.42  9.30 51.76                                                             
C 17.45  6.97  3.04                                                             
C 17.45  6.97 15.22                                                             
C 17.45  6.97 27.40                                                             
C 17.45  6.97 39.58                                                             
C 17.45  6.97 51.76                                                             
C 21.47  4.65  3.04                                                             
C 21.47  4.65 15.22                                                             
C 21.47  4.65 27.40                                                             
C 21.47  4.65 39.58                                                             
C 21.47  4.65 51.76                                                             
C 25.50  2.32  3.04                                                             
C 25.50  2.32 15.22                                                             
C 25.50  2.32 27.40                                                             
C 25.50  2.32 39.58                                                             
C 25.50  2.32 51.76                                                             
C 29.52  0.00  3.04                                                             
C 29.52  0.00 15.22                                                             
C 29.52  0.00 27.40                                                             
C 29.52  0.00 39.58                                                             
C 29.52  0.00 51.76                                                             
C  9.39 16.27  3.04                                                             
C  9.39 16.27 15.22                                                             
C  9.39 16.27 27.40                                                             
C  9.39 16.27 39.58                                                             
C  9.39 16.27 51.76                                                             
C 13.42 13.95  3.04                                                             
C 13.42 13.95 15.22                                                             
C 13.42 13.95 27.40                                                             
C 13.42 13.95 39.58                                                             
C 13.42 13.95 51.76                                                             
C 17.45 11.62  3.04                                                             
C 17.45 11.62 15.22                                                             
C 17.45 11.62 27.40                                                             
C 17.45 11.62 39.58                                                             
C 17.45 11.62 51.76                                                             
C 21.47  9.30  3.04                                                             
C 21.47  9.30 15.22                                                             
C 21.47  9.30 27.40                                                             
C 21.47  9.30 39.58                                                             
C 21.47  9.30 51.76                                                             
C 25.50  6.97  3.04                                                             
C 25.50  6.97 15.22                                                             
C 25.50  6.97 27.40                                                             
C 25.50  6.97 39.58                                                             
C 25.50  6.97 51.76                                                             
C 29.52  4.65  3.04                                                             
C 29.52  4.65 15.22                                                             
C 29.52  4.65 27.40                                                             
C 29.52  4.65 39.58                                                             
C 29.52  4.65 51.76                                                             
C 17.45 16.27  3.04                                                             
C 17.45 16.27 15.22                                                             
C 17.45 16.27 27.40                                                             
C 17.45 16.27 39.58                                                             
C 17.45 16.27 51.76                                                             
C 21.47 13.95  3.04                                                             
C 21.47 13.95 15.22                                                             
C 21.47 13.95 27.40                                                             
C 21.47 13.95 39.58                                                             
C 21.47 13.95 51.76                                                             
C 25.50 11.62  3.04                                                             
C 25.50 11.62 15.22                                                             
C 25.50 11.62 27.40                                                             
C 25.50 11.62 39.58                                                             
C 25.50 11.62 51.76                                                             
C 29.52  9.30  3.04                                                             
C 29.52  9.30 15.22                                                             
C 29.52  9.30 27.40                                                             
C 29.52  9.30 39.58                                                             
C 29.52  9.30 51.76                                                             
C 25.50 16.27  3.04                                                             
C 25.50 16.27 15.22                                                             
C 25.50 16.27 27.40                                                             
C 25.50 16.27 39.58                                                             
C 25.50 16.27 51.76                                                             
C 29.52 13.95  3.04                                                             
C 29.52 13.95 15.22                                                             
C 29.52 13.95 27.40                                                             
C 29.52 13.95 39.58                                                             
C 29.52 13.95 51.76                                                             
C  2.68  0.00  9.13                                                             
C  2.68  0.00 21.31                                                             
C  2.68  0.00 33.49                                                             
C  2.68  0.00 45.67                                                             
C  2.68  0.00 57.85                                                             
C  2.68  4.65  9.13                                                             
C  2.68  4.65 21.31                                                             
C  2.68  4.65 33.49                                                             
C  2.68  4.65 45.67                                                             
C  2.68  4.65 57.85                                                             
C  6.71  2.32  9.13                                                             
C  6.71  2.32 21.31                                                             
C  6.71  2.32 33.49                                                             
C  6.71  2.32 45.67                                                             
C  6.71  2.32 57.85                                                             
C 10.74  0.00  9.13                                                             
C 10.74  0.00 21.31                                                             
C 10.74  0.00 33.49                                                             
C 10.74  0.00 45.67                                                             
C 10.74  0.00 57.85                                                             
C  2.68  9.30  9.13                                                             
C  2.68  9.30 21.31                                                             
C  2.68  9.30 33.49                                                             
C  2.68  9.30 45.67                                                             
C  2.68  9.30 57.85                                                             
C  6.71  6.97  9.13                                                             
C  6.71  6.97 21.31                                                             
C  6.71  6.97 33.49                                                             
C  6.71  6.97 45.67                                                             
C  6.71  6.97 57.85                                                             
C 10.74  4.65  9.13                                                             
C 10.74  4.65 21.31                                                             
C 10.74  4.65 33.49                                                             
C 10.74  4.65 45.67                                                             
C 10.74  4.65 57.85                                                             
C 14.76  2.32  9.13                                                             
C 14.76  2.32 21.31                                                             
C 14.76  2.32 33.49                                                             
C 14.76  2.32 45.67                                                             
C 14.76  2.32 57.85                                                             
C 18.79  0.00  9.13                                                             
C 18.79  0.00 21.31                                                             
C 18.79  0.00 33.49                                                             
C 18.79  0.00 45.67                                                             
C 18.79  0.00 57.85                                                             
C  2.68 13.95  9.13                                                             
C  2.68 13.95 21.31                                                             
C  2.68 13.95 33.49                                                             
C  2.68 13.95 45.67                                                             
C  2.68 13.95 57.85                                                             
C  6.71 11.62  9.13                                                             
C  6.71 11.62 21.31                                                             
C  6.71 11.62 33.49                                                             
C  6.71 11.62 45.67                                                             
C  6.71 11.62 57.85                                                             
C 10.74  9.30  9.13                                                             
C 10.74  9.30 21.31                                                             
C 10.74  9.30 33.49                                                             
C 10.74  9.30 45.67                                                             
C 10.74  9.30 57.85                                                             
C 14.76  6.97  9.13                                                             
C 14.76  6.97 21.31                                                             
C 14.76  6.97 33.49                                                             
C 14.76  6.97 45.67                                                             
C 14.76  6.97 57.85                                                             
C 18.79  4.65  9.13                                                             
C 18.79  4.65 21.31                                                             
C 18.79  4.65 33.49                                                             
C 18.79  4.65 45.67                                                             
C 18.79  4.65 57.85                                                             
C 22.81  2.32  9.13                                                             
C 22.81  2.32 21.31                                                             
C 22.81  2.32 33.49                                                             
C 22.81  2.32 45.67                                                             
C 22.81  2.32 57.85                                                             
C 26.84  0.00  9.13                                                             
C 26.84  0.00 21.31                                                             
C 26.84  0.00 33.49                                                             
C 26.84  0.00 45.67                                                             
C 26.84  0.00 57.85                                                             
C  6.71 16.27  9.13                                                             
C  6.71 16.27 21.31                                                             
C  6.71 16.27 33.49                                                             
C  6.71 16.27 45.67                                                             
C  6.71 16.27 57.85                                                             
C 10.74 13.95  9.13                                                             
C 10.74 13.95 21.31                                                             
C 10.74 13.95 33.49                                                             
C 10.74 13.95 45.67                                                             
C 10.74 13.95 57.85                                                             
C 14.76 11.62  9.13                                                             
C 14.76 11.62 21.31                                                             
C 14.76 11.62 33.49                                                             
C 14.76 11.62 45.67                                                             
C 14.76 11.62 57.85                                                             
C 18.79  9.30  9.13                                                             
C 18.79  9.30 21.31                                                             
C 18.79  9.30 33.49                                                             
C 18.79  9.30 45.67                                                             
C 18.79  9.30 57.85                                                             
C 22.81  6.97  9.13                                                             
C 22.81  6.97 21.31                                                             
C 22.81  6.97 33.49                                                             
C 22.81  6.97 45.67                                                             
C 22.81  6.97 57.85                                                             
C 26.84  4.65  9.13                                                             
C 26.84  4.65 21.31                                                             
C 26.84  4.65 33.49                                                             
C 26.84  4.65 45.67                                                             
C 26.84  4.65 57.85                                                             
C 30.86  2.32  9.13                                                             
C 30.86  2.32 21.31                                                             
C 30.86  2.32 33.49                                                             
C 30.86  2.32 45.67                                                             
C 30.86  2.32 57.85                                                             
C 14.76 16.27  9.13                                                             
C 14.76 16.27 21.31                                                             
C 14.76 16.27 33.49                                                             
C 14.76 16.27 45.67                                                             
C 14.76 16.27 57.85                                                             
C 18.79 13.95  9.13                                                             
C 18.79 13.95 21.31                                                             
C 18.79 13.95 33.49                                                             
C 18.79 13.95 45.67                                                             
C 18.79 13.95 57.85                                                             
C 22.81 11.62  9.13                                                             
C 22.81 11.62 21.31                                                             
C 22.81 11.62 33.49                                                             
C 22.81 11.62 45.67                                                             
C 22.81 11.62 57.85                                                             
C 26.84  9.30  9.13                                                             
C 26.84  9.30 21.31                                                             
C 26.84  9.30 33.49                                                             
C 26.84  9.30 45.67                                                             
C 26.84  9.30 57.85                                                             
C 30.86  6.97  9.13                                                             
C 30.86  6.97 21.31                                                             
C 30.86  6.97 33.49                                                             
C 30.86  6.97 45.67                                                             
C 30.86  6.97 57.85                                                             
C 22.81 16.27  9.13                                                             
C 22.81 16.27 21.31                                                             
C 22.81 16.27 33.49                                                             
C 22.81 16.27 45.67                                                             
C 22.81 16.27 57.85                                                             
C 26.84 13.95  9.13                                                             
C 26.84 13.95 21.31                                                             
C 26.84 13.95 33.49                                                             
C 26.84 13.95 45.67                                                             
C 26.84 13.95 57.85                                                             
C 30.86 11.62  9.13                                                             
C 30.86 11.62 21.31                                                             
C 30.86 11.62 33.49                                                             
C 30.86 11.62 45.67                                                             
C 30.86 11.62 57.85                                                             
C 30.86 16.27  9.13                                                             
C 30.86 16.27 21.31                                                             
C 30.86 16.27 33.49                                                             
C 30.86 16.27 45.67                                                             
C 30.86 16.27 57.85                                                             
%ENDBLOCK POSITIONS_ABS                                                         

--------------------------------------------------------------------------------
-------------------------------- END INPUT FILE --------------------------------
--------------------------------------------------------------------------------


 
<<<<<<<<<<<<<<<<<<<<<<<<<<<<<<<<< Full system >>>>>>>>>>>>>>>>>>>>>>>>>>>>>>>>>>
<<<<<<<<<<<<<<<<<<<<<<<<<<< PAW Dataset information >>>>>>>>>>>>>>>>>>>>>>>>>>>
File: ~/pp/paw/c_pbe_abinit.paw; rc = 1.25 bohr; shape type =  3; rshape = 1.25 bohr;
  Atomic number:  6;  ionic charge:  4.000000
    Partial Wave 1: l = 0
    Partial Wave 2: l = 0
    Partial Wave 3: l = 1
    Partial Wave 4: l = 1
  Core charge supplied for Nonlinear Core Corrections
<<<<<<<<<<<<<<<<<<<<<<<<<<<<<<<<<<<<<<< >>>>>>>>>>>>>>>>>>>>>>>>>>>>>>>>>>>>>>>

-------------------------- Atom counting information ---------------------------
Symbol    Natoms    Nngwfs    Nprojs
  C        640      2560      5120
.......   ......    ......    ......
Totals:    640      2560      5120
--------------------------------------------------------------------------------

=============================== PSINC grid sizes ===============================
                      Simulation cell:   63 x  35 x 120
                              FFT-box:   63 x  35 x 117
                                  PPD:    7 x   5 x   1
Grid space d1=  0.511269841270a0 (KE cutoff=  29.06054Eh = 790.77748eV)
Grid space d2=  0.531142857143a0 (KE cutoff=  26.92659Eh = 732.70972eV)
Grid space d3=  0.507500000000a0 (KE cutoff=  29.49388Eh = 802.56931eV)
================================================================================
  
WARNING in cell_grid_distribute:
Average of less than one 23-slab per node, so workload cannot be
equally balanced between nodes.

********************* Fourier parallelisation information **********************
       Coarse grid (whole simulation cell) dimensions:     63    35   120
          Real-space ('12') slabs/node (min max mean):      3     3     3
         Recip-space ('23') slabs/node (min max mean):      0     1     0
********************************************************************************

********************* Fourier parallelisation information **********************
       Double grid (whole simulation cell) dimensions:    126    70   240
          Real-space ('12') slabs/node (min max mean):      6     6     6
         Recip-space ('23') slabs/node (min max mean):      1     2     1
********************************************************************************

Atom SCF Calculation for C  : Z (AE atom) =   6 : Z (PS atom) =   4
Config String: 2s2 2p2
Orbitals (num,occ):  2     2.00 2.00
Orbitals   (num,l):  2        0    1
Real-space Grid (nr,dr,rmax): 1293    0.0069659443    9.0000000000
Spherical Bessel Basis (nsws,lmax,cutoff):   37    2  161.4736382572
Confining potential (l,width,scale):  0    3.0000000000  100.0000000000
Confining potential (l,width,scale):  1    3.0000000000  100.0000000000
  1         -5.4283124456   -1.2935102156    4.5135257941   -1.5923561795
  2         -5.4241534249   -1.3636937911    4.4427183619   -1.5694122055
  3         -5.4326289545   -1.3865748334    4.4195613881   -1.5634604620
  4         -5.4368073263   -1.3933479911    4.4127833993   -1.5619680687
  5         -5.4388652800   -1.3969668505    4.4091714945   -1.5612108736
  6         -5.4399077146   -1.3988848872    4.4072644158   -1.5608235486
  7         -5.4404434041   -1.3998980658    4.4062615348   -1.5606243010
  8         -5.4407208401   -1.4004325328    4.4057350952   -1.5605214507
  9         -5.4408651553   -1.4007143559    4.4054589454   -1.5604682523
 10         -5.4409404127   -1.4008629743    4.4053141024   -1.5604407028
 11         -5.4409797152   -1.4009413770    4.4052381126   -1.5604264250
 12         -5.4410002582   -1.4009827603    4.4051982277   -1.5604190215
 13         -5.4410110012   -1.4010046176    4.4051772812   -1.5604151811
 14         -5.4410166211   -1.4010161701    4.4051662735   -1.5604131883
 15         -5.4410195614   -1.4010222805    4.4051604845   -1.5604121539
 16         -5.4410211001   -1.4010255150    4.4051574379   -1.5604116169
 17         -5.4410219052   -1.4010272285    4.4051558332   -1.5604113379
 18         -5.4410223266   -1.4010281369    4.4051549874   -1.5604111930
 19         -5.4410225472   -1.4010286190    4.4051545411   -1.5604111177
 20         -5.4410226626   -1.4010288749    4.4051543055   -1.5604110786
 21         -5.4410227231   -1.4010290110    4.4051541810   -1.5604110582
Atom SCF converged after  21 iterations to a total energy of     -5.44102272

Determining parallel strategy ...
... using space-filling curve
... NGWF load balancing: max     64;  min     64;  average     64
... Projector load balancing: max    128;  min    128;  average    128
... done
Calculating Ewald energy ...
              Ewald: real-space energy =    9522.944987
        Ewald: reciprocal-space energy =       0.045360
         Ewald: (sum_charge)**2 Energy =   11466.410210
         Ewald: (sum_charge**2) Energy =     906.499321
                          Ewald Energy =   -2849.919183
Basis initialisation ...... NGWF spheres initialised
... Projector spheres initialised
... NGWF tight boxes initialised
... Projector tight boxes initialised
... Tight-boxes gathered
... NGWF basis size (local,global):     692596  27862400
... PAW projector initialisation
... done

============================= Charge Augmentation ==============================
                           Aug box size:   11 x  11 x  11
================================================================================

========================== Sparse matrix information ===========================
                        Overlap matrix filling:  44.38%
                        Density kernel filling: 100.00%
              NGWF-Proj overlap matrix filling:  13.12%
                    Aug Overlap matrix filling:  47.81%
                    Hamiltonian matrix filling:  47.81%
                  NGWF diagonal matrix filling:   0.16%
                             KS matrix filling: 100.00% 
                           KSKS matrix filling: 100.00% 
================================================================================

Sparse matrix initialisation ... done
NGWF initialisation ...... done
============ Calculation of NGWF S^-1 using Hotelling algorithm ================ 
         Iteration  |  Frobenius norm and Maximum abs value    (of I-S*S_n^-1)   
               1       0.49210292E+02     0.97792146E+00
               2       0.48084175E+02     0.95762950E+00
               3       0.46362548E+02     0.92143440E+00
               4       0.44082815E+02     0.86185358E+00
               5       0.41319538E+02     0.77291236E+00
               6       0.38052380E+02     0.68897308E+00
               7       0.34549356E+02     0.63913618E+00
               8       0.31194298E+02     0.59793638E+00
               9       0.27736814E+02     0.55646086E+00
              10       0.23468012E+02     0.49420845E+00
              11       0.17877391E+02     0.39343239E+00
              12       0.11197596E+02     0.25398380E+00
              13       0.49706912E+01     0.11167243E+00
              14       0.11657953E+01     0.24364596E-01
              15       0.76161357E-01     0.14059348E-02
              16       0.40162265E-03     0.59031436E-05
              17       0.16410738E-07     0.15288149E-09
              18       0.82504430E-13     0.44408921E-14
================================================================================
Calculating core density ...
================================= Core Density =================================
               Core den box size:   21 x  21 x  21
================================================================================
 ... done
Up spin density kernel initialisation ...... done

Writing density kernel to file "3.22252712_GO_manual_4x64graphite.dkn" ... done

>>> Optimising kernel for current NGWFs:

--------------------------- Ensemble-DFT optimisation --------------------------
Running ScaLAPACK on   40 processor(s).

--------------------------------------------------------------------------------
  Iter                              Commutator    Free_energy(A=E-TS)     DeltaA
#    0                          0.000042270023   -3652.82504890756491  -3.65E+03

Step                       =       0.381966011250
Energy                     =   -3652.825008086877
Entropy (-TS)              =      -0.000040820779
Free energy (A=E-TS)       =   -3652.825048907565
Est. 0K Energy 0.5*(E+A)   =   -3652.825028497221
Residual Non-orthogonality =       0.000000000000
Residual N_electrons       =       0.000000000092

Spin          Integrated_Ne            Fermi_level     Delta_Fermi_level
   1      2559.999999999607         0.234087483468              2.34E-01

                           Spin 1          
     Orb      H-eigenvalues     Occupancies
       1 |    -0.4891214505    1.0000000000 | 
                          ------
    1276 |     0.2012677175    0.9999684423 | 
    1277 |     0.2018825422    0.9999616806 | 
    1278 |     0.2018825422    0.9999616806 | 
    1279 |     0.2023180535    0.9999560315 | 
    1280 |     0.2029213316    0.9999468050 | 
                 - Gap at zero temperature -
    1281 |     0.2676865181    0.0000246740 | 
    1282 |     0.2676865181    0.0000246740 | 
    1283 |     0.2678048752    0.0000237689 | 
    1284 |     0.2679149006    0.0000229572 | 
    1285 |     0.2679149006    0.0000229572 | 
                          ------
    2560 |     1.0666691399    0.0000000000 | 

                       |  Abs_value |  Threshold | Converged
     Delta_Free_energy |   3.65E+03 |   1.00E-06 |        No
     Delta_Energy      |   3.65E+03 |   1.00E-04 |        No
     Delta_Entropy     |   4.08E-05 |   1.00E-04 |       Yes
     Commutator        |   4.23E-05 |   1.00E-05 |        No
     Delta_Fermi_level |   2.34E-01 |   1.00E-03 |        No

  Line search of the free energy minimum:
  Step_type        Step             Free_energy   Predicted_free_energy
.   Initial    0.000000    -3652.82504890756491
.    Trial1    0.381966    -3652.82685761290304
.    Trial2    0.618034    -3652.82645856762838
. Quadratic    0.418707    -3652.82687133874515    -3652.82687164792469

--------------------------------------------------------------------------------
  Iter                              Commutator    Free_energy(A=E-TS)     DeltaA
#    1                          0.000019462306   -3652.82687133874515  -1.82E-03

Step                       =       0.418707326315
Energy                     =   -3652.826831295331
Entropy (-TS)              =      -0.000040043610
Free energy (A=E-TS)       =   -3652.826871338745
Est. 0K Energy 0.5*(E+A)   =   -3652.826851317038
Residual Non-orthogonality =       0.000000000000
Residual N_electrons       =       0.000000000196

Spin          Integrated_Ne            Fermi_level     Delta_Fermi_level
   1      2559.999999999169         0.235834037300              1.75E-03

                           Spin 1          
     Orb      H-eigenvalues     Occupancies
       1 |    -0.4879657641    1.0000000000 | 
                          ------
    1276 |     0.2030153646    0.9999684315 | 
    1277 |     0.2035138893    0.9999630496 | 
    1278 |     0.2035138893    0.9999630496 | 
    1279 |     0.2040851072    0.9999557460 | 
    1280 |     0.2045725325    0.9999483827 | 
                 - Gap at zero temperature -
    1281 |     0.2694912316    0.0000242250 | 
    1282 |     0.2694912316    0.0000242250 | 
    1283 |     0.2696302537    0.0000231845 | 
    1284 |     0.2697506404    0.0000223197 | 
    1285 |     0.2697506404    0.0000223197 | 
                          ------
    2560 |     1.0695828577    0.0000000000 | 

                       |  Abs_value |  Threshold | Converged
     Delta_Free_energy |   1.82E-03 |   1.00E-06 |        No
     Delta_Energy      |   1.82E-03 |   1.00E-04 |        No
     Delta_Entropy     |   7.77E-07 |   1.00E-04 |       Yes
     Commutator        |   1.95E-05 |   1.00E-05 |        No
     Delta_Fermi_level |   1.75E-03 |   1.00E-03 |        No

  Line search of the free energy minimum:
  Step_type        Step             Free_energy   Predicted_free_energy
.   Initial    0.000000    -3652.82687133874515
.    Trial1    0.418707    -3652.82715492861507
.    Trial2    0.640741    -3652.82679247221131
. Quadratic    0.303298    -3652.82720325380296    -3652.82720294183173

--------------------------------------------------------------------------------
  Iter                              Commutator    Free_energy(A=E-TS)     DeltaA
#    2                          0.000013287000   -3652.82720325380296  -3.32E-04

Step                       =       0.303298046256
Energy                     =   -3652.827163661766
Entropy (-TS)              =      -0.000039591453
Free energy (A=E-TS)       =   -3652.827203253803
Est. 0K Energy 0.5*(E+A)   =   -3652.827183457784
Residual Non-orthogonality =       0.000000000000
Residual N_electrons       =      -0.000000000584

Spin          Integrated_Ne            Fermi_level     Delta_Fermi_level
   1      2560.000000002468         0.236523591070              6.90E-04

                           Spin 1          
     Orb      H-eigenvalues     Occupancies
       1 |    -0.4874906121    1.0000000000 | 
                          ------
    1276 |     0.2036532380    0.9999689424 | 
    1277 |     0.2041769288    0.9999633576 | 
    1278 |     0.2041769288    0.9999633576 | 
    1279 |     0.2047182025    0.9999565279 | 
    1280 |     0.2052306403    0.9999488927 | 
                 - Gap at zero temperature -
    1281 |     0.2702250166    0.0000238890 | 
    1282 |     0.2702250166    0.0000238890 | 
    1283 |     0.2703631380    0.0000228695 | 
    1284 |     0.2704898002    0.0000219729 | 
    1285 |     0.2704898002    0.0000219729 | 
                          ------
    2560 |     1.0707887258    0.0000000000 | 

                       |  Abs_value |  Threshold | Converged
     Delta_Free_energy |   3.32E-04 |   1.00E-06 |        No
     Delta_Energy      |   3.32E-04 |   1.00E-04 |        No
     Delta_Entropy     |   4.52E-07 |   1.00E-04 |       Yes
     Commutator        |   1.33E-05 |   1.00E-05 |        No
     Delta_Fermi_level |   6.90E-04 |   1.00E-03 |       Yes

  Line search of the free energy minimum:
  Step_type        Step             Free_energy   Predicted_free_energy
.   Initial    0.000000    -3652.82720325380296
.    Trial1    0.303298    -3652.82734348598342
.    Trial2    0.569415    -3652.82717566261908
. Quadratic    0.272085    -3652.82734537908664    -3652.82734535602003

--------------------------------------------------------------------------------
  Iter                              Commutator    Free_energy(A=E-TS)     DeltaA
#    3                          0.000009296838   -3652.82734537908664  -1.42E-04

Step                       =       0.272085447851
Energy                     =   -3652.827306057377
Entropy (-TS)              =      -0.000039321378
Free energy (A=E-TS)       =   -3652.827345379087
Est. 0K Energy 0.5*(E+A)   =   -3652.827325718232
Residual Non-orthogonality =       0.000000000000
Residual N_electrons       =      -0.000000000332

Spin          Integrated_Ne            Fermi_level     Delta_Fermi_level
   1      2560.000000001400         0.236955945755              4.32E-04

                           Spin 1          
     Orb      H-eigenvalues     Occupancies
       1 |    -0.4871898487    1.0000000000 | 
                          ------
    1276 |     0.2040607097    0.9999691855 | 
    1277 |     0.2045881204    0.9999636017 | 
    1278 |     0.2045881204    0.9999636017 | 
    1279 |     0.2051244783    0.9999568844 | 
    1280 |     0.2056406200    0.9999492525 | 
                 - Gap at zero temperature -
    1281 |     0.2706815939    0.0000237070 | 
    1282 |     0.2706815939    0.0000237070 | 
    1283 |     0.2708204556    0.0000226899 | 
    1284 |     0.2709454543    0.0000218118 | 
    1285 |     0.2709454543    0.0000218118 | 
                          ------
    2560 |     1.0715508688    0.0000000000 | 

                       |  Abs_value |  Threshold | Converged
     Delta_Free_energy |   1.42E-04 |   1.00E-06 |        No
     Delta_Energy      |   1.42E-04 |   1.00E-04 |        No
     Delta_Entropy     |   2.70E-07 |   1.00E-04 |       Yes
     Commutator        |   9.30E-06 |   1.00E-05 |       Yes
     Delta_Fermi_level |   4.32E-04 |   1.00E-03 |       Yes

  Line search of the free energy minimum:
  Step_type        Step             Free_energy   Predicted_free_energy
.   Initial    0.000000    -3652.82734537908664
.    Trial1    0.272085    -3652.82741439015490
.    Trial2    0.550124    -3652.82734997814396
. Quadratic    0.279800    -3652.82741444101248    -3652.82741444266185

--------------------------------------------------------------------------------
  Iter                              Commutator    Free_energy(A=E-TS)     DeltaA
#    4                          0.000006821940   -3652.82741444101248  -6.91E-05

Step                       =       0.279800367114
Energy                     =   -3652.827375317515
Entropy (-TS)              =      -0.000039123613
Free energy (A=E-TS)       =   -3652.827414441012
[...]
 C   160 -- C   385       -0.09      5.37000
 C   159 -- C   384       -0.09      5.37000
 C   158 -- C   383       -0.09      5.37000
 C   157 -- C   382       -0.09      5.37000
 C   156 -- C   381       -0.09      5.37000
 C   155 -- C   355       -0.10      5.37000
 C   154 -- C   354       -0.10      5.37000
 C   153 -- C   353       -0.10      5.37000
 C   152 -- C   352       -0.10      5.37000
 C   151 -- C   351       -0.10      5.37000
 C   140 -- C   335       -0.09      5.37000
 C   139 -- C   334       -0.09      5.37000
 C   138 -- C   333       -0.09      5.37000
 C   137 -- C   332       -0.09      5.37000
 C   136 -- C   331       -0.09      5.37000
 C   115 -- C   325       -0.09      5.37000
 C   114 -- C   324       -0.09      5.37000
 C   113 -- C   323       -0.09      5.37000
 C   112 -- C   322       -0.09      5.37000
 C   111 -- C   321       -0.09      5.37000
 C   219 -- C   569       -0.09      5.37202
 C   218 -- C   568       -0.09      5.37202
 C   217 -- C   567       -0.09      5.37202
 C   216 -- C   566       -0.09      5.37202
 C   250 -- C   540       -0.09      5.37202
 C   249 -- C   539       -0.09      5.37202
 C   248 -- C   538       -0.09      5.37202
 C   247 -- C   537       -0.09      5.37202
 C   246 -- C   536       -0.09      5.37202
 C   220 -- C   570       -0.09      5.37202
 C   285 -- C   580       -0.09      5.37202
 C   284 -- C   579       -0.09      5.37202
 C   283 -- C   578       -0.09      5.37202
 C   282 -- C   577       -0.09      5.37202
 C   281 -- C   576       -0.09      5.37202
 C   260 -- C   605       -0.09      5.37202
 C   259 -- C   604       -0.09      5.37202
 C   258 -- C   603       -0.09      5.37202
 C   257 -- C   602       -0.09      5.37202
 C   256 -- C   601       -0.09      5.37202
 C   220 -- C   515       -0.09      5.37202
 C   219 -- C   514       -0.09      5.37202
 C   218 -- C   513       -0.09      5.37202
 C   217 -- C   512       -0.09      5.37202
 C   216 -- C   511       -0.09      5.37202
 C   195 -- C   540       -0.09      5.37202
 C   195 -- C   500       -0.09      5.37202
 C   194 -- C   539       -0.09      5.37202
 C   194 -- C   499       -0.09      5.37202
 C   193 -- C   538       -0.09      5.37202
 C   193 -- C   498       -0.09      5.37202
 C   192 -- C   537       -0.09      5.37202
 C   192 -- C   497       -0.09      5.37202
 C   191 -- C   536       -0.09      5.37202
 C   191 -- C   496       -0.09      5.37202
 C   180 -- C   515       -0.09      5.37202
 C   179 -- C   514       -0.09      5.37202
 C   178 -- C   513       -0.09      5.37202
 C   177 -- C   512       -0.09      5.37202
 C   176 -- C   511       -0.09      5.37202
 C    11 -- C   331       -0.09      5.37202
 C   205 -- C   550       -0.09      5.37202
 C   204 -- C   549       -0.09      5.37202
 C   203 -- C   548       -0.09      5.37202
 C   202 -- C   547       -0.09      5.37202
 C   201 -- C   546       -0.09      5.37202
 C    95 -- C   425       -0.09      5.37202
 C    95 -- C   365       -0.09      5.37202
 C    94 -- C   424       -0.09      5.37202
 C    94 -- C   364       -0.09      5.37202
 C    93 -- C   423       -0.09      5.37202
 C    93 -- C   363       -0.09      5.37202
 C    92 -- C   422       -0.09      5.37202
 C    92 -- C   362       -0.09      5.37202
 C    91 -- C   421       -0.09      5.37202
 C    91 -- C   361       -0.09      5.37202
 C    40 -- C   365       -0.09      5.37202
 C    39 -- C   364       -0.09      5.37202
 C    38 -- C   363       -0.09      5.37202
 C    37 -- C   362       -0.09      5.37202
 C    36 -- C   361       -0.09      5.37202
 C    15 -- C   335       -0.09      5.37202
 C    65 -- C   395       -0.09      5.37202
 C    65 -- C   345       -0.09      5.37202
 C    64 -- C   394       -0.09      5.37202
 C    64 -- C   344       -0.09      5.37202
 C    63 -- C   393       -0.09      5.37202
 C    30 -- C   355       -0.09      5.37202
 C    63 -- C   343       -0.09      5.37202
 C    62 -- C   392       -0.09      5.37202
 C    30 -- C   325       -0.09      5.37202
 C    14 -- C   334       -0.09      5.37202
 C    62 -- C   342       -0.09      5.37202
 C    61 -- C   391       -0.09      5.37202
 C    29 -- C   354       -0.09      5.37202
 C    61 -- C   341       -0.09      5.37202
 C    29 -- C   324       -0.09      5.37202
 C   260 -- C   550       -0.09      5.37202
 C   259 -- C   549       -0.09      5.37202
 C    28 -- C   353       -0.09      5.37202
 C   258 -- C   548       -0.09      5.37202
 C   257 -- C   547       -0.09      5.37202
 C   256 -- C   546       -0.09      5.37202
 C    28 -- C   323       -0.09      5.37202
 C    27 -- C   352       -0.09      5.37202
 C    13 -- C   333       -0.09      5.37202
 C    27 -- C   322       -0.09      5.37202
 C   120 -- C   395       -0.09      5.37202
 C    26 -- C   351       -0.09      5.37202
 C   119 -- C   394       -0.09      5.37202
 C   118 -- C   393       -0.09      5.37202
 C    55 -- C   335       -0.09      5.37202
 C   117 -- C   392       -0.09      5.37202
 C    26 -- C   321       -0.09      5.37202
 C   116 -- C   391       -0.09      5.37202
 C    54 -- C   334       -0.09      5.37202
 C    12 -- C   332       -0.09      5.37202
 C    53 -- C   333       -0.09      5.37202
 C   230 -- C   580       -0.09      5.37202
 C   230 -- C   525       -0.09      5.37202
 C   229 -- C   579       -0.09      5.37202
 C   229 -- C   524       -0.09      5.37202
 C   228 -- C   578       -0.09      5.37202
 C    52 -- C   332       -0.09      5.37202
 C   228 -- C   523       -0.09      5.37202
 C   227 -- C   577       -0.09      5.37202
 C   227 -- C   522       -0.09      5.37202
 C   226 -- C   576       -0.09      5.37202
 C   226 -- C   521       -0.09      5.37202
 C    51 -- C   331       -0.09      5.37202
 C    23 -- C   478       -0.09      5.37202
 C    49 -- C   469       -0.09      5.37202
 C    48 -- C   468       -0.09      5.37202
 C    47 -- C   467       -0.09      5.37202
 C    22 -- C   477       -0.09      5.37202
 C    46 -- C   466       -0.09      5.37202
 C    21 -- C   476       -0.09      5.37202
 C    85 -- C   355       -0.09      5.37202
 C    84 -- C   354       -0.09      5.37202
 C    83 -- C   353       -0.09      5.37202
 C    82 -- C   352       -0.09      5.37202
 C    81 -- C   351       -0.09      5.37202
 C    55 -- C   385       -0.09      5.37202
 C    54 -- C   384       -0.09      5.37202
 C    25 -- C   480       -0.09      5.37202
 C    53 -- C   383       -0.09      5.37202
 C    52 -- C   382       -0.09      5.37202
 C    51 -- C   381       -0.09      5.37202
 C    24 -- C   479       -0.09      5.37202
 C    50 -- C   470       -0.09      5.37202
 C    24 -- C   449       -0.09      5.37202
 C     6 -- C   416       -0.09      5.37202
 C    23 -- C   448       -0.09      5.37202
 C    22 -- C   447       -0.09      5.37202
 C    10 -- C   470       -0.09      5.37202
 C     5 -- C   450       -0.09      5.37202
 C    21 -- C   446       -0.09      5.37202
 C    10 -- C   420       -0.09      5.37202
 C     9 -- C   469       -0.09      5.37202
 C     9 -- C   419       -0.09      5.37202
 C     8 -- C   468       -0.09      5.37202
 C     4 -- C   449       -0.09      5.37202
 C   150 -- C   440       -0.09      5.37202
 C   149 -- C   439       -0.09      5.37202
 C   148 -- C   438       -0.09      5.37202
 C   147 -- C   437       -0.09      5.37202
 C     8 -- C   418       -0.09      5.37202
 C   146 -- C   436       -0.09      5.37202
 C     2 -- C   447       -0.09      5.37202
 C   135 -- C   460       -0.09      5.37202
 C     7 -- C   467       -0.09      5.37202
 C   134 -- C   459       -0.09      5.37202
 C   133 -- C   458       -0.09      5.37202
 C   132 -- C   457       -0.09      5.37202
 C   131 -- C   456       -0.09      5.37202
 C     7 -- C   417       -0.09      5.37202
 C     1 -- C   446       -0.09      5.37202
 C     6 -- C   466       -0.09      5.37202
 C    25 -- C   450       -0.09      5.37202
 C     3 -- C   448       -0.09      5.37202
 C   106 -- C   436       -0.09      5.37202
 C   106 -- C   376       -0.09      5.37202
 C    80 -- C   410       -0.09      5.37202
 C    79 -- C   409       -0.09      5.37202
 C    78 -- C   408       -0.09      5.37202
 C    77 -- C   407       -0.09      5.37202
 C    76 -- C   406       -0.09      5.37202
 C   135 -- C   410       -0.09      5.37202
 C   134 -- C   409       -0.09      5.37202
 C   133 -- C   408       -0.09      5.37202
 C   132 -- C   407       -0.09      5.37202
 C   131 -- C   406       -0.09      5.37202
 C   110 -- C   440       -0.09      5.37202
 C   110 -- C   380       -0.09      5.37202
 C   109 -- C   439       -0.09      5.37202
 C   109 -- C   379       -0.09      5.37202
 C   108 -- C   438       -0.09      5.37202
 C   108 -- C   378       -0.09      5.37202
 C   107 -- C   437       -0.09      5.37202
 C   107 -- C   377       -0.09      5.37202
 C   215 -- C   635       -0.10      5.38000
 C   214 -- C   634       -0.10      5.38000
 C   213 -- C   633       -0.10      5.38000
 C   212 -- C   632       -0.10      5.38000
 C   211 -- C   631       -0.10      5.38000
 C   190 -- C   620       -0.10      5.38000
 C   189 -- C   619       -0.10      5.38000
 C   188 -- C   618       -0.10      5.38000
 C   187 -- C   617       -0.10      5.38000
 C   186 -- C   616       -0.10      5.38000
 C   175 -- C   595       -0.10      5.38000
 C   174 -- C   594       -0.10      5.38000
 C   173 -- C   593       -0.10      5.38000
 C   172 -- C   592       -0.10      5.38000
 C   171 -- C   591       -0.10      5.38000
 C   245 -- C   640       -0.09      5.38000
 C   244 -- C   639       -0.09      5.38000
 C   243 -- C   638       -0.09      5.38000
 C   242 -- C   637       -0.09      5.38000
 C   241 -- C   636       -0.09      5.38000
==================================================


=================== Orbital energy and occupancy information ===================

      Total number of orbitals:    2560
        Occupancy sum (kernel):    1280.000000000
   Occupancy sum (eigenvalues):    1280.000000000
                 HOMO-LUMO gap:       0.062293819 Eh
                 Mid-gap level:       0.278245210 Eh

                        Orbital | Energy (Eh) | Occupancy
                            1    -0.447472854   1.0000000
                        .......   ...........   .........
                         1271     0.241814314   0.9999870
                         1272     0.241814314   0.9999870
                         1273     0.242284566   0.9999849
                         1274     0.242284566   0.9999849
                         1275     0.246115947   0.9999492
                         1276     0.246115947   0.9999492
                         1277     0.246558283   0.9999416
                         1278     0.246558283   0.9999416
                         1279     0.246673666   0.9999394
                         1280     0.247098301   0.9999308
                        ....... -- gap at 0K -- .........
                         1281     0.309392120   0.0000412
                         1282     0.309392120   0.0000412
                         1283     0.309644673   0.0000381
                         1284     0.309644673   0.0000381
                         1285     0.310596294   0.0000283
                         1286     0.310596294   0.0000283
                         1287     0.310867348   0.0000260
                         1288     0.310867348   0.0000260
                         1289     0.311364199   0.0000222
                         1290     0.311411817   0.0000217
                        .......   ...........   .........
                         2560     1.167280101   0.0000000

================================================================================

===================== Writing canonical molecular orbitals =====================
| Orbital  Energy (eV)  Norm     |
| HOMO      6.72388690  1.000000 | Writing "3.22252712_GO_manual_4x64graphite_HOMO.cube" ... done
Writing "3.22252712_GO_manual_4x64graphite_HOMO.dx" ... done
| LUMO      8.41898797  1.000000 | Writing "3.22252712_GO_manual_4x64graphite_LUMO.cube" ... done
Writing "3.22252712_GO_manual_4x64graphite_LUMO.dx" ... done
================================================================================
 
===================== Density of States (DOS) calculation ======================
Writing "3.22252712_GO_manual_4x64graphite_DOS.txt" ...  done
================================================================================
 
Writing bands to file "3.22252712_GO_manual_4x64graphite.val_bands" ... done
 
================ Projected Density of States (pDOS) calculation ================
 
Constructing AM resolved functions  ...... done
Writing NGWF plot files in formats: CUBE DX ...  done
 
Performing overlap integrals ...  done
 
Computing pDOS weights ...  done
 
All bands spilling parameter =   3.92 %
Occupancy-weighted spilling parameter =   0.83 %
 
 => Outputting data for OptaDOS <=
 
Writing pDOS weights to file "3.22252712_GO_manual_4x64graphite.val_pdos_bin" ... done
 
Writing band gradients to file "3.22252712_GO_manual_4x64graphite.val_dome_bin" ... done
 
Writing Castep output cell file to "3.22252712_GO_manual_4x64graphite-out.cell" ... done
 
 => Computing Gaussian smeared pDOS <= 
Writing "3.22252712_GO_manual_4x64graphite_PDOS.txt" ...  done
 
 => Computing Occupancy-weighted Gaussian smeared pDOS <= 
Writing "3.22252712_GO_manual_4x64graphite_occ_PDOS.txt" ...  done
  => Band centres: 
 S band centre of group 1:  -13.834798 eV
 P band centre of group 1:   -6.728273 eV
  Band centres done. <=
  => Integrated number of electrons in each AM band: 
 S num electrons of group 1:  574.435314
 P num electrons of group 1: 1964.199134
  Integrated number of electrons done. <=
================================================================================

------------------------------ TIMING INFORMATION ------------------------------
AVERAGE TIME:    4448.347s on     40 node(s)                                    
TOTAL TIME:      4448.347s on     40 node(s)                                    
================= AVERAGE TIMINGS FROM ALL NODES (CUMULATIVE) ==================
|| TAG                                    #calls    cpu time   %total  Gflops ||
|| work_imbalance                       :     1        0.00s   0.000%  ------ ||
|| paw_tcore_hartree_on_grid            :     1        0.00s   0.000%  ------ ||
|| paw_tcore_density                    :     1        0.01s   0.000%  ------ ||
|| paw_sphere_density_on_grid           :     1        0.01s   0.000%  ------ ||
|| sparse_set_to_garbage                :   183        0.04s   0.001%  ------ ||
|| pseudo_make_structure_factor         :     1        0.05s   0.001%  ------ ||
|| paw_dij_hartree                      :   405        0.05s   0.001%  ------ ||
|| basis_extract_function_from_box      :  2048        0.09s   0.002%  ------ ||
|| paw_species_calc_proj_prec_mat       :     1        0.12s   0.003%  ------ ||
|| paw_dataset_init                     :     1        0.15s   0.003%  ------ ||
|| density_init_guess_real              :     1        0.17s   0.004%  ------ ||
|| ngwfs_initialise_from_radial         :     2        0.66s   0.015%  ------ ||
|| sparse_init                          :     1        0.92s   0.021%  ------ ||
|| restart_kernel_write                 :    17        0.93s   0.021%  ------ ||
|| hartree_on_grid                      :   303        1.18s   0.027%  ------ ||
|| dense_normal_eigensolve              :     1        1.25s   0.028%  ------ ||
|| ewald_calculate_energy               :     1        2.31s   0.052%  ------ ||
|| projectors_init_fftbox_recip         :   161        3.15s   0.071%  ------ ||
|| fourier_apply_box_pair               :  3040        5.03s   0.113% 560.046 ||
|| basis_copy_function_to_box           : 28672        6.17s   0.139%  ------ ||
|| sw_init                              :     1        6.72s   0.151%  ------ ||
|| augmentation_screen_dij              :   310        6.85s   0.154%  ------ ||
|| sparse_embed_hotelling_invert_embed  :    31        9.63s   0.217%  ------ ||
|| ngwf_gradient_coeffs                 :    16       12.73s   0.286%  ------ ||
|| cell_grid_extract_box_real           : 12204       13.75s   0.309%  ------ ||
|| fourier_apply_cell_backward          :  9364       14.88s   0.335%  70.709 ||
|| fourier_apply_cell_forward           :  8759       16.64s   0.374%  59.170 ||
|| sparse_trace                         :  3680       20.66s   0.464%  ------ ||
|| cell_grid_deposit_box_real           : 38960       22.30s   0.501%  ------ ||
|| paw_dij_xc                           :   405       28.92s   0.650%  ------ ||
|| aug_nonlocal_mat                     :   389       43.24s   0.972%  ------ ||
|| density_fftbox_deposit_to_cell       : 19392       43.75s   0.984%  ------ ||
|| eigenstates_pdos                     :     1       47.12s   1.059%  ------ ||
|| eigenstates_calculate                :     1       50.85s   1.143%  ------ ||
|| augmentation_density_on_grid         :   303       56.24s   1.264%  ------ ||
|| function_ops_brappd_ketppd           :    64       64.02s   1.439%  ------ ||
|| hamiltonian_energy_components        :     4       67.69s   1.522%  ------ ||
|| nlxc_vdw_energy                      :   604       76.58s   1.721%  ------ ||
|| projectors_func_ovlp_box             :    32       77.52s   1.743%  ------ ||
|| xc_energy_potential                  :   302       80.37s   1.807%  ------ ||
|| properties_calculate                 :     1       90.62s   2.037%  ------ ||
|| integrals_kinetic                    :    31      114.91s   2.583%  ------ ||
|| dense_eigensolve                     :   267      118.41s   2.662%  ------ ||
|| restart_ngwfs_tightbox_output        :    15      120.51s   2.709%  ------ ||
|| potential_apply_to_ngwf_batch        :   388      147.54s   3.317%  ------ ||
|| sparse_product                       :  3665      160.35s   3.605%  ------ ||
|| basis_dot_function_with_box          : 9.556M     259.81s   5.841%  ------ ||
|| fourier_apply_box                    : 89872      280.36s   6.303% 979.387 ||
|| edft_diag_ngwf_ham                   :   266      281.20s   6.321%  ------ ||
|| projectors_gradient_batch            :    64      300.40s   6.753%  ------ ||
|| integrals_locpot_mat_els_batch       :   388      366.61s   8.241%  ------ ||
|| density_fftbox_interpolate_multiply  : 19392      375.80s   8.448%  ------ ||
|| projectors_grad_precond_batch        :    64      442.56s   9.949%  ------ ||
|| density_batch_interp_deposit         :  1212      461.71s  10.379%  ------ ||
|| integrals_locpot_dbl_grid            :    97      516.25s  11.605%  ------ ||
|| edft_apply_smearing_operator         :   266      562.99s  12.656%  ------ ||
|| basis_add_function_to_box            : 26.68M     693.82s  15.597%  ------ ||
|| ngwf_gradient_build_batch            :    64      791.10s  17.784%  ------ ||
|| density_batch_row_sums               :  1212     1022.07s  22.976%  ------ ||
|| ngwf_gradient_batch                  :    64     1051.43s  23.636%  ------ ||
|| ngwf_gradient_lnv                    :    16     1089.39s  24.490%  ------ ||
|| density_on_dbl_grid                  :   303     1500.19s  33.725%  ------ ||
|| hamiltonian_lhxc_calculate           :   297     1615.02s  36.306%  ------ ||
|| edft_calculate                       :    16     2680.23s  60.252%  ------ ||
|| ngwf_cg_optimise                     :     1     4337.84s  97.516%  ------ ||
|| total_time                           :     1     4448.35s 100.000%  ------ ||
================================================================================
Overhead of generating timer report: 
- 0 ms averaging over threads,
- 5 ms ensuring consistency across MPI ranks,
- 0 ms printing in order.

Job completed: 21-02-2020 14:23 (-0000)

