 +---------------------------------------------------------------+
 |                                                               |
 |        ####### #     # ####### ####### ####### ######         |
 |        #     # ##    # #          #    #       #     #        |
 |        #     # # #   # #          #    #       #     #        |
 |        #     # #  #  # #####      #    #####   ######         |
 |        #     # #   # # #          #    #       #              |
 |        #     # #    ## #          #    #       #              |
 |        ####### #     # #######    #    ####### #              |
 |                                                               |
 |        Linear-Scaling Ab Initio Total Energy Program          |
 |                                                               |
 |          Release for academic collaborators of ODG            |
 |                                             Version 5.3.2.12  |
 |                                                               |
 +---------------------------------------------------------------+
 |                                                               |
 |  Authors:                                                     |
 |  Jacek Dziedzic, Peter D. Haynes, Nicholas D. M. Hine,        |
 |  Arash. A. Mostofi, Mike C. Payne and Chris-Kriton Skylaris   |
 |                                                               |
 |  Contributors:                                                |
 |  J. Aarons, L. Andrinopoulos, P. W. Avraam, R. A. Bell,       |
 |  A. Bhandari, G. A. Bramley, R. J. Charlton, S. J. Clark,     |
 |  R. J. Clements, G. C. Constantinescu, F. Corsetti,           |
 |  N. Corsini, O. Dieguez, S. M. M. Dubois, K. K. B. Duff,      |
 |  J. M. Escartin, A. Greco, H. Helal, Q. O. Hill, L. P. Lee,   |
 |  J.-H. Li, E. B. Linscott, G. Moynihan, D. D. O`Regan,        |
 |  O. K. Okan, M. J. S. Phipps, C. J. Pickard,                  |
 |  J. C. A. Prentice, M. I. J. Probert, L. E. Ratcliff,         |
 |  M. Robinson, A. Ruiz Serrano, J. S. Spencer, E. W. Tait,     |
 |  G. Teobaldi, D. Turban, V. Vitale, K. A. Wilkinson,          |
 |  C. Weber, J. C. Womack, N. Yeung and T. J. Zuehlsdorff       |
 |                                                               |
 |                                   Copyright (c) 2004-2020     |
 |                                                               |
 |  Please cite:                                                 |
 |  "Introducing ONETEP: Linear-scaling density functional       |
 |   simulations on parallel computers".                         |
 |   C.-K. Skylaris, P. D. Haynes, A. A. Mostofi, M. C. Payne.   |
 |   J. Chem. Phys. 122 084119 (2005).                           |
 |                                                               |
 |          in all publications arising from your use of ONETEP. |
 |                                                               |
 +---------------------------------------------------------------+
 |                                                               |
 |   ONETEP is based on developments described in the following  |
 |   publications:                                               |
 |                                                               |
 |  "Nonorthogonal generalized Wannier function pseudopotential  |
 |   plane-wave method".                                         |
 |   C.-K. Skylaris, A. A. Mostofi, P. D. Haynes, O. Dieguez,    |
 |   M. C. Payne.                                                |
 |   Phys. Rev. B 66 035119 (2002).                              |
 |                                                               |
 |  "Preconditioned iterative minimization for linear-scaling    |
 |   electronic structure calculations".                         |
 |   A. A. Mostofi, P. D. Haynes, C.-K. Skylaris, M. C. Payne.   |
 |   J. Chem. Phys. 119(17), pp.8842-8848 (2003).                |
 |                                                               |
 |  "Total-energy calculations on a real space grid with         |
 |   localized functions and a plane-wave basis".                |
 |   A. A. Mostofi, C.-K. Skylaris, P. D. Haynes, M. C. Payne.   |
 |   Comput. Phys. Commun. 147, pp.788-802 (2002).               |
 |                                                               |
 |  "Accurate kinetic energy evaluation in electronic structure  |
 |   calculations with localized functions on real space grids"  |
 |   C.-K. Skylaris, A. A. Mostofi, P. D. Haynes, C. J. Pickard, |
 |   M. C. Payne.                                                |
 |   Comput. Phys. Commun. 140, pp.315-322 (2001).               |
 |                                                               |
 |  "Accurate ionic forces and geometry optimization in linear-  |
 |   scaling density-functional theory with local orbitals"      |
 |   N. D. M. Hine, M. Robinson, P. D. Haynes, C.-K. Skylaris,   |
 |   M. C. Payne, and A. A. Mostofi.                             |
 |   Phys. Rev. B 83 195102 (2011).                              |
 |                                                               |
 +---------------------------------------------------------------+

Job started: 21-02-2020 13:14 (-0000)
 
Reading parameters from file "3.2735064_GO_manual_4x64graphite.dat" ...

WARNING: "cutoff_energy" not specified, but "psinc_spacing" specified.
         Using the latter to set the KE cutoff energy to  732.32021eV,
         thus *overriding* the default.

... done

If your calculation crashes here, before "Checking processes and threads..."
is displayed, then your stack size is insufficient.
If so, use "ulimit -s unlimited" at runtime.
You can disable this check with "check_stack_size F".

Checking processes and threads...
   Determining the default number of threads...
      No default threads set at compilation time: defaulting to 1.
      OpenMP library call suggests 4 threads.
      Hybrid MPI-OpenMP compilation detected.
      Number of MPI processes > 1.
      OMP_NUM_THREADS environment variable present and
      its value matches the one obtained from the OpenMP library call.
      Using this value as default.
      Default threads: 4
      Default applies to threads_max and threads_num_fftboxes.
      Settings in the input file override this default.
   ... done

   Running with 40 MPI processes.
   There are 10 MPI processes running on the same node as the root process.
   Each MPI process is using: 
               1 threads for simulation cell FFTs.
               1 threads for parallel FFT box operations.
               4 threads for loops over batched FFT box operations.
               4 threads in other parallel regions.
... done

Basic input checks...
Resetting ngwf_cg_rotate to TRUE for EDFT calculations
... done

Reading geometry and species blocks from file "3.2735064_GO_manual_4x64graphite.dat" ...
    
  PSINC grid spacing along a1 set to   0.511215680000a0 from input file.
  PSINC grid spacing along a2 set to   0.531284090000a0 from input file.
  PSINC grid spacing along a3 set to   0.507052730000a0 from input file.
  Number of PPD points along a3 set to 1.  This is 
  the default value, it may have been provided also in the input file.
... done
 Writing xyz coordinates to file "3.2735064_GO_manual_4x64graphite.xyz" ... done


--------------------------------------------------------------------------------
---------------------------------- INPUT FILE ----------------------------------
--------------------------------------------------------------------------------

task : singlepoint                                                              
do_properties : true                                                            
dx_format T                                                                     
edft T                                                                          
output_detail VERBOSE                                                           
write_xyz T                                                                     
xc_functional VV10                                                              
PSINC_SPACING 0.51121568 0.53128409 0.50705273                                  
paw T                                                                           
pdos_max_l = 2                                                                  
dos_smear  0.1 eV                                                               
popn_calculate T                                                                
PDOS_PSEUDOATOMIC T                                                             
PDOS_REDUCE_SWS F                                                               
PDOS_CONSTRUCT_BASIS F                                                          
PDOS_LOWDIN T                                                                   
PDOS_ORTH_ATOM_BLOCKS F                                                         
PDOS_LCAO_OPTIMIZE F                                                            
pdos_optados_output T                                                           
homo_plot 0                                                                     
lumo_plot 0                                                                     
homo_dens_plot -1                                                               
lumo_dens_plot -1                                                               
%BLOCK SPECIES                                                                  
C C 6 4 9.0                                                                     
%ENDBLOCK SPECIES                                                               
%BLOCK SPECIES_POT                                                              
C "~/pp/paw/c_pbe_abinit.paw"                                                   
%ENDBLOCK SPECIES_POT                                                           
%BLOCK SPECIES_ATOMIC_SET                                                       
C "SOLVE conf=2s2 2p2"                                                          
%ENDBLOCK SPECIES_ATOMIC_SET                                                    
%BLOCK LATTICE_CART                                                             
32.21  0.00  0.00                                                               
0.00 18.59  0.00                                                                
0.00  0.00 61.86                                                                
%ENDBLOCK LATTICE_CART                                                          
%BLOCK POSITIONS_ABS                                                            
C  0.00  0.00  3.09                                                             
C  0.00  0.00 15.47                                                             
C  0.00  0.00 27.84                                                             
C  0.00  0.00 40.21                                                             
C  0.00  0.00 52.58                                                             
C  0.00  4.65  3.09                                                             
C  0.00  4.65 15.47                                                             
C  0.00  4.65 27.84                                                             
C  0.00  4.65 40.21                                                             
C  0.00  4.65 52.58                                                             
C  4.03  2.32  3.09                                                             
C  4.03  2.32 15.47                                                             
C  4.03  2.32 27.84                                                             
C  4.03  2.32 40.21                                                             
C  4.03  2.32 52.58                                                             
C  8.05  0.00  3.09                                                             
C  8.05  0.00 15.47                                                             
C  8.05  0.00 27.84                                                             
C  8.05  0.00 40.21                                                             
C  8.05  0.00 52.58                                                             
C  0.00  9.30  3.09                                                             
C  0.00  9.30 15.47                                                             
C  0.00  9.30 27.84                                                             
C  0.00  9.30 40.21                                                             
C  0.00  9.30 52.58                                                             
C  4.03  6.97  3.09                                                             
C  4.03  6.97 15.47                                                             
C  4.03  6.97 27.84                                                             
C  4.03  6.97 40.21                                                             
C  4.03  6.97 52.58                                                             
C  8.05  4.65  3.09                                                             
C  8.05  4.65 15.47                                                             
C  8.05  4.65 27.84                                                             
C  8.05  4.65 40.21                                                             
C  8.05  4.65 52.58                                                             
C 12.08  2.32  3.09                                                             
C 12.08  2.32 15.47                                                             
C 12.08  2.32 27.84                                                             
C 12.08  2.32 40.21                                                             
C 12.08  2.32 52.58                                                             
C 16.10  0.00  3.09                                                             
C 16.10  0.00 15.47                                                             
C 16.10  0.00 27.84                                                             
C 16.10  0.00 40.21                                                             
C 16.10  0.00 52.58                                                             
C  0.00 13.95  3.09                                                             
C  0.00 13.95 15.47                                                             
C  0.00 13.95 27.84                                                             
C  0.00 13.95 40.21                                                             
C  0.00 13.95 52.58                                                             
C  4.03 11.62  3.09                                                             
C  4.03 11.62 15.47                                                             
C  4.03 11.62 27.84                                                             
C  4.03 11.62 40.21                                                             
C  4.03 11.62 52.58                                                             
C  8.05  9.30  3.09                                                             
C  8.05  9.30 15.47                                                             
C  8.05  9.30 27.84                                                             
C  8.05  9.30 40.21                                                             
C  8.05  9.30 52.58                                                             
C 12.08  6.97  3.09                                                             
C 12.08  6.97 15.47                                                             
C 12.08  6.97 27.84                                                             
C 12.08  6.97 40.21                                                             
C 12.08  6.97 52.58                                                             
C 16.10  4.65  3.09                                                             
C 16.10  4.65 15.47                                                             
C 16.10  4.65 27.84                                                             
C 16.10  4.65 40.21                                                             
C 16.10  4.65 52.58                                                             
C 20.13  2.32  3.09                                                             
C 20.13  2.32 15.47                                                             
C 20.13  2.32 27.84                                                             
C 20.13  2.32 40.21                                                             
C 20.13  2.32 52.58                                                             
C 24.16  0.00  3.09                                                             
C 24.16  0.00 15.47                                                             
C 24.16  0.00 27.84                                                             
C 24.16  0.00 40.21                                                             
C 24.16  0.00 52.58                                                             
C  4.03 16.27  3.09                                                             
C  4.03 16.27 15.47                                                             
C  4.03 16.27 27.84                                                             
C  4.03 16.27 40.21                                                             
C  4.03 16.27 52.58                                                             
C  8.05 13.95  3.09                                                             
C  8.05 13.95 15.47                                                             
C  8.05 13.95 27.84                                                             
C  8.05 13.95 40.21                                                             
C  8.05 13.95 52.58                                                             
C 12.08 11.62  3.09                                                             
C 12.08 11.62 15.47                                                             
C 12.08 11.62 27.84                                                             
C 12.08 11.62 40.21                                                             
C 12.08 11.62 52.58                                                             
C 16.10  9.30  3.09                                                             
C 16.10  9.30 15.47                                                             
C 16.10  9.30 27.84                                                             
C 16.10  9.30 40.21                                                             
C 16.10  9.30 52.58                                                             
C 20.13  6.97  3.09                                                             
C 20.13  6.97 15.47                                                             
C 20.13  6.97 27.84                                                             
C 20.13  6.97 40.21                                                             
C 20.13  6.97 52.58                                                             
C 24.16  4.65  3.09                                                             
C 24.16  4.65 15.47                                                             
C 24.16  4.65 27.84                                                             
C 24.16  4.65 40.21                                                             
C 24.16  4.65 52.58                                                             
C 28.18  2.32  3.09                                                             
C 28.18  2.32 15.47                                                             
C 28.18  2.32 27.84                                                             
C 28.18  2.32 40.21                                                             
C 28.18  2.32 52.58                                                             
C 12.08 16.27  3.09                                                             
C 12.08 16.27 15.47                                                             
C 12.08 16.27 27.84                                                             
C 12.08 16.27 40.21                                                             
C 12.08 16.27 52.58                                                             
C 16.10 13.95  3.09                                                             
C 16.10 13.95 15.47                                                             
C 16.10 13.95 27.84                                                             
C 16.10 13.95 40.21                                                             
C 16.10 13.95 52.58                                                             
C 20.13 11.62  3.09                                                             
C 20.13 11.62 15.47                                                             
C 20.13 11.62 27.84                                                             
C 20.13 11.62 40.21                                                             
C 20.13 11.62 52.58                                                             
C 24.16  9.30  3.09                                                             
C 24.16  9.30 15.47                                                             
C 24.16  9.30 27.84                                                             
C 24.16  9.30 40.21                                                             
C 24.16  9.30 52.58                                                             
C 28.18  6.97  3.09                                                             
C 28.18  6.97 15.47                                                             
C 28.18  6.97 27.84                                                             
C 28.18  6.97 40.21                                                             
C 28.18  6.97 52.58                                                             
C 20.13 16.27  3.09                                                             
C 20.13 16.27 15.47                                                             
C 20.13 16.27 27.84                                                             
C 20.13 16.27 40.21                                                             
C 20.13 16.27 52.58                                                             
C 24.16 13.95  3.09                                                             
C 24.16 13.95 15.47                                                             
C 24.16 13.95 27.84                                                             
C 24.16 13.95 40.21                                                             
C 24.16 13.95 52.58                                                             
C 28.18 11.62  3.09                                                             
C 28.18 11.62 15.47                                                             
C 28.18 11.62 27.84                                                             
C 28.18 11.62 40.21                                                             
C 28.18 11.62 52.58                                                             
C 28.18 16.27  3.09                                                             
C 28.18 16.27 15.47                                                             
C 28.18 16.27 27.84                                                             
C 28.18 16.27 40.21                                                             
C 28.18 16.27 52.58                                                             
C  0.00  0.00  9.28                                                             
C  0.00  0.00 21.65                                                             
C  0.00  0.00 34.02                                                             
C  0.00  0.00 46.40                                                             
C  0.00  0.00 58.77                                                             
C  0.00  4.65  9.28                                                             
C  0.00  4.65 21.65                                                             
C  0.00  4.65 34.02                                                             
C  0.00  4.65 46.40                                                             
C  0.00  4.65 58.77                                                             
C  4.03  2.32  9.28                                                             
C  4.03  2.32 21.65                                                             
C  4.03  2.32 34.02                                                             
C  4.03  2.32 46.40                                                             
C  4.03  2.32 58.77                                                             
C  8.05  0.00  9.28                                                             
C  8.05  0.00 21.65                                                             
C  8.05  0.00 34.02                                                             
C  8.05  0.00 46.40                                                             
C  8.05  0.00 58.77                                                             
C  0.00  9.30  9.28                                                             
C  0.00  9.30 21.65                                                             
C  0.00  9.30 34.02                                                             
C  0.00  9.30 46.40                                                             
C  0.00  9.30 58.77                                                             
C  4.03  6.97  9.28                                                             
C  4.03  6.97 21.65                                                             
C  4.03  6.97 34.02                                                             
C  4.03  6.97 46.40                                                             
C  4.03  6.97 58.77                                                             
C  8.05  4.65  9.28                                                             
C  8.05  4.65 21.65                                                             
C  8.05  4.65 34.02                                                             
C  8.05  4.65 46.40                                                             
C  8.05  4.65 58.77                                                             
C 12.08  2.32  9.28                                                             
C 12.08  2.32 21.65                                                             
C 12.08  2.32 34.02                                                             
C 12.08  2.32 46.40                                                             
C 12.08  2.32 58.77                                                             
C 16.10  0.00  9.28                                                             
C 16.10  0.00 21.65                                                             
C 16.10  0.00 34.02                                                             
C 16.10  0.00 46.40                                                             
C 16.10  0.00 58.77                                                             
C  0.00 13.95  9.28                                                             
C  0.00 13.95 21.65                                                             
C  0.00 13.95 34.02                                                             
C  0.00 13.95 46.40                                                             
C  0.00 13.95 58.77                                                             
C  4.03 11.62  9.28                                                             
C  4.03 11.62 21.65                                                             
C  4.03 11.62 34.02                                                             
C  4.03 11.62 46.40                                                             
C  4.03 11.62 58.77                                                             
C  8.05  9.30  9.28                                                             
C  8.05  9.30 21.65                                                             
C  8.05  9.30 34.02                                                             
C  8.05  9.30 46.40                                                             
C  8.05  9.30 58.77                                                             
C 12.08  6.97  9.28                                                             
C 12.08  6.97 21.65                                                             
C 12.08  6.97 34.02                                                             
C 12.08  6.97 46.40                                                             
C 12.08  6.97 58.77                                                             
C 16.10  4.65  9.28                                                             
C 16.10  4.65 21.65                                                             
C 16.10  4.65 34.02                                                             
C 16.10  4.65 46.40                                                             
C 16.10  4.65 58.77                                                             
C 20.13  2.32  9.28                                                             
C 20.13  2.32 21.65                                                             
C 20.13  2.32 34.02                                                             
C 20.13  2.32 46.40                                                             
C 20.13  2.32 58.77                                                             
C 24.16  0.00  9.28                                                             
C 24.16  0.00 21.65                                                             
C 24.16  0.00 34.02                                                             
C 24.16  0.00 46.40                                                             
C 24.16  0.00 58.77                                                             
C  4.03 16.27  9.28                                                             
C  4.03 16.27 21.65                                                             
C  4.03 16.27 34.02                                                             
C  4.03 16.27 46.40                                                             
C  4.03 16.27 58.77                                                             
C  8.05 13.95  9.28                                                             
C  8.05 13.95 21.65                                                             
C  8.05 13.95 34.02                                                             
C  8.05 13.95 46.40                                                             
C  8.05 13.95 58.77                                                             
C 12.08 11.62  9.28                                                             
C 12.08 11.62 21.65                                                             
C 12.08 11.62 34.02                                                             
C 12.08 11.62 46.40                                                             
C 12.08 11.62 58.77                                                             
C 16.10  9.30  9.28                                                             
C 16.10  9.30 21.65                                                             
C 16.10  9.30 34.02                                                             
C 16.10  9.30 46.40                                                             
C 16.10  9.30 58.77                                                             
C 20.13  6.97  9.28                                                             
C 20.13  6.97 21.65                                                             
C 20.13  6.97 34.02                                                             
C 20.13  6.97 46.40                                                             
C 20.13  6.97 58.77                                                             
C 24.16  4.65  9.28                                                             
C 24.16  4.65 21.65                                                             
C 24.16  4.65 34.02                                                             
C 24.16  4.65 46.40                                                             
C 24.16  4.65 58.77                                                             
C 28.18  2.32  9.28                                                             
C 28.18  2.32 21.65                                                             
C 28.18  2.32 34.02                                                             
C 28.18  2.32 46.40                                                             
C 28.18  2.32 58.77                                                             
C 12.08 16.27  9.28                                                             
C 12.08 16.27 21.65                                                             
C 12.08 16.27 34.02                                                             
C 12.08 16.27 46.40                                                             
C 12.08 16.27 58.77                                                             
C 16.10 13.95  9.28                                                             
C 16.10 13.95 21.65                                                             
C 16.10 13.95 34.02                                                             
C 16.10 13.95 46.40                                                             
C 16.10 13.95 58.77                                                             
C 20.13 11.62  9.28                                                             
C 20.13 11.62 21.65                                                             
C 20.13 11.62 34.02                                                             
C 20.13 11.62 46.40                                                             
C 20.13 11.62 58.77                                                             
C 24.16  9.30  9.28                                                             
C 24.16  9.30 21.65                                                             
C 24.16  9.30 34.02                                                             
C 24.16  9.30 46.40                                                             
C 24.16  9.30 58.77                                                             
C 28.18  6.97  9.28                                                             
C 28.18  6.97 21.65                                                             
C 28.18  6.97 34.02                                                             
C 28.18  6.97 46.40                                                             
C 28.18  6.97 58.77                                                             
C 20.13 16.27  9.28                                                             
C 20.13 16.27 21.65                                                             
C 20.13 16.27 34.02                                                             
C 20.13 16.27 46.40                                                             
C 20.13 16.27 58.77                                                             
C 24.16 13.95  9.28                                                             
C 24.16 13.95 21.65                                                             
C 24.16 13.95 34.02                                                             
C 24.16 13.95 46.40                                                             
C 24.16 13.95 58.77                                                             
C 28.18 11.62  9.28                                                             
C 28.18 11.62 21.65                                                             
C 28.18 11.62 34.02                                                             
C 28.18 11.62 46.40                                                             
C 28.18 11.62 58.77                                                             
C 28.18 16.27  9.28                                                             
C 28.18 16.27 21.65                                                             
C 28.18 16.27 34.02                                                             
C 28.18 16.27 46.40                                                             
C 28.18 16.27 58.77                                                             
C  1.34  2.32  3.09                                                             
C  1.34  2.32 15.47                                                             
C  1.34  2.32 27.84                                                             
C  1.34  2.32 40.21                                                             
C  1.34  2.32 52.58                                                             
C  5.37  0.00  3.09                                                             
C  5.37  0.00 15.47                                                             
C  5.37  0.00 27.84                                                             
C  5.37  0.00 40.21                                                             
C  5.37  0.00 52.58                                                             
C  1.34  6.97  3.09                                                             
C  1.34  6.97 15.47                                                             
C  1.34  6.97 27.84                                                             
C  1.34  6.97 40.21                                                             
C  1.34  6.97 52.58                                                             
C  5.37  4.65  3.09                                                             
C  5.37  4.65 15.47                                                             
C  5.37  4.65 27.84                                                             
C  5.37  4.65 40.21                                                             
C  5.37  4.65 52.58                                                             
C  9.39  2.32  3.09                                                             
C  9.39  2.32 15.47                                                             
C  9.39  2.32 27.84                                                             
C  9.39  2.32 40.21                                                             
C  9.39  2.32 52.58                                                             
C 13.42  0.00  3.09                                                             
C 13.42  0.00 15.47                                                             
C 13.42  0.00 27.84                                                             
C 13.42  0.00 40.21                                                             
C 13.42  0.00 52.58                                                             
C  1.34 11.62  3.09                                                             
C  1.34 11.62 15.47                                                             
C  1.34 11.62 27.84                                                             
C  1.34 11.62 40.21                                                             
C  1.34 11.62 52.58                                                             
C  5.37  9.30  3.09                                                             
C  5.37  9.30 15.47                                                             
C  5.37  9.30 27.84                                                             
C  5.37  9.30 40.21                                                             
C  5.37  9.30 52.58                                                             
C  9.39  6.97  3.09                                                             
C  9.39  6.97 15.47                                                             
C  9.39  6.97 27.84                                                             
C  9.39  6.97 40.21                                                             
C  9.39  6.97 52.58                                                             
C 13.42  4.65  3.09                                                             
C 13.42  4.65 15.47                                                             
C 13.42  4.65 27.84                                                             
C 13.42  4.65 40.21                                                             
C 13.42  4.65 52.58                                                             
C 17.45  2.32  3.09                                                             
C 17.45  2.32 15.47                                                             
C 17.45  2.32 27.84                                                             
C 17.45  2.32 40.21                                                             
C 17.45  2.32 52.58                                                             
C 21.47  0.00  3.09                                                             
C 21.47  0.00 15.47                                                             
C 21.47  0.00 27.84                                                             
C 21.47  0.00 40.21                                                             
C 21.47  0.00 52.58                                                             
C  1.34 16.27  3.09                                                             
C  1.34 16.27 15.47                                                             
C  1.34 16.27 27.84                                                             
C  1.34 16.27 40.21                                                             
C  1.34 16.27 52.58                                                             
C  5.37 13.95  3.09                                                             
C  5.37 13.95 15.47                                                             
C  5.37 13.95 27.84                                                             
C  5.37 13.95 40.21                                                             
C  5.37 13.95 52.58                                                             
C  9.39 11.62  3.09                                                             
C  9.39 11.62 15.47                                                             
C  9.39 11.62 27.84                                                             
C  9.39 11.62 40.21                                                             
C  9.39 11.62 52.58                                                             
C 13.42  9.30  3.09                                                             
C 13.42  9.30 15.47                                                             
C 13.42  9.30 27.84                                                             
C 13.42  9.30 40.21                                                             
C 13.42  9.30 52.58                                                             
C 17.45  6.97  3.09                                                             
C 17.45  6.97 15.47                                                             
C 17.45  6.97 27.84                                                             
C 17.45  6.97 40.21                                                             
C 17.45  6.97 52.58                                                             
C 21.47  4.65  3.09                                                             
C 21.47  4.65 15.47                                                             
C 21.47  4.65 27.84                                                             
C 21.47  4.65 40.21                                                             
C 21.47  4.65 52.58                                                             
C 25.50  2.32  3.09                                                             
C 25.50  2.32 15.47                                                             
C 25.50  2.32 27.84                                                             
C 25.50  2.32 40.21                                                             
C 25.50  2.32 52.58                                                             
C 29.52  0.00  3.09                                                             
C 29.52  0.00 15.47                                                             
C 29.52  0.00 27.84                                                             
C 29.52  0.00 40.21                                                             
C 29.52  0.00 52.58                                                             
C  9.39 16.27  3.09                                                             
C  9.39 16.27 15.47                                                             
C  9.39 16.27 27.84                                                             
C  9.39 16.27 40.21                                                             
C  9.39 16.27 52.58                                                             
C 13.42 13.95  3.09                                                             
C 13.42 13.95 15.47                                                             
C 13.42 13.95 27.84                                                             
C 13.42 13.95 40.21                                                             
C 13.42 13.95 52.58                                                             
C 17.45 11.62  3.09                                                             
C 17.45 11.62 15.47                                                             
C 17.45 11.62 27.84                                                             
C 17.45 11.62 40.21                                                             
C 17.45 11.62 52.58                                                             
C 21.47  9.30  3.09                                                             
C 21.47  9.30 15.47                                                             
C 21.47  9.30 27.84                                                             
C 21.47  9.30 40.21                                                             
C 21.47  9.30 52.58                                                             
C 25.50  6.97  3.09                                                             
C 25.50  6.97 15.47                                                             
C 25.50  6.97 27.84                                                             
C 25.50  6.97 40.21                                                             
C 25.50  6.97 52.58                                                             
C 29.52  4.65  3.09                                                             
C 29.52  4.65 15.47                                                             
C 29.52  4.65 27.84                                                             
C 29.52  4.65 40.21                                                             
C 29.52  4.65 52.58                                                             
C 17.45 16.27  3.09                                                             
C 17.45 16.27 15.47                                                             
C 17.45 16.27 27.84                                                             
C 17.45 16.27 40.21                                                             
C 17.45 16.27 52.58                                                             
C 21.47 13.95  3.09                                                             
C 21.47 13.95 15.47                                                             
C 21.47 13.95 27.84                                                             
C 21.47 13.95 40.21                                                             
C 21.47 13.95 52.58                                                             
C 25.50 11.62  3.09                                                             
C 25.50 11.62 15.47                                                             
C 25.50 11.62 27.84                                                             
C 25.50 11.62 40.21                                                             
C 25.50 11.62 52.58                                                             
C 29.52  9.30  3.09                                                             
C 29.52  9.30 15.47                                                             
C 29.52  9.30 27.84                                                             
C 29.52  9.30 40.21                                                             
C 29.52  9.30 52.58                                                             
C 25.50 16.27  3.09                                                             
C 25.50 16.27 15.47                                                             
C 25.50 16.27 27.84                                                             
C 25.50 16.27 40.21                                                             
C 25.50 16.27 52.58                                                             
C 29.52 13.95  3.09                                                             
C 29.52 13.95 15.47                                                             
C 29.52 13.95 27.84                                                             
C 29.52 13.95 40.21                                                             
C 29.52 13.95 52.58                                                             
C  2.68  0.00  9.28                                                             
C  2.68  0.00 21.65                                                             
C  2.68  0.00 34.02                                                             
C  2.68  0.00 46.40                                                             
C  2.68  0.00 58.77                                                             
C  2.68  4.65  9.28                                                             
C  2.68  4.65 21.65                                                             
C  2.68  4.65 34.02                                                             
C  2.68  4.65 46.40                                                             
C  2.68  4.65 58.77                                                             
C  6.71  2.32  9.28                                                             
C  6.71  2.32 21.65                                                             
C  6.71  2.32 34.02                                                             
C  6.71  2.32 46.40                                                             
C  6.71  2.32 58.77                                                             
C 10.74  0.00  9.28                                                             
C 10.74  0.00 21.65                                                             
C 10.74  0.00 34.02                                                             
C 10.74  0.00 46.40                                                             
C 10.74  0.00 58.77                                                             
C  2.68  9.30  9.28                                                             
C  2.68  9.30 21.65                                                             
C  2.68  9.30 34.02                                                             
C  2.68  9.30 46.40                                                             
C  2.68  9.30 58.77                                                             
C  6.71  6.97  9.28                                                             
C  6.71  6.97 21.65                                                             
C  6.71  6.97 34.02                                                             
C  6.71  6.97 46.40                                                             
C  6.71  6.97 58.77                                                             
C 10.74  4.65  9.28                                                             
C 10.74  4.65 21.65                                                             
C 10.74  4.65 34.02                                                             
C 10.74  4.65 46.40                                                             
C 10.74  4.65 58.77                                                             
C 14.76  2.32  9.28                                                             
C 14.76  2.32 21.65                                                             
C 14.76  2.32 34.02                                                             
C 14.76  2.32 46.40                                                             
C 14.76  2.32 58.77                                                             
C 18.79  0.00  9.28                                                             
C 18.79  0.00 21.65                                                             
C 18.79  0.00 34.02                                                             
C 18.79  0.00 46.40                                                             
C 18.79  0.00 58.77                                                             
C  2.68 13.95  9.28                                                             
C  2.68 13.95 21.65                                                             
C  2.68 13.95 34.02                                                             
C  2.68 13.95 46.40                                                             
C  2.68 13.95 58.77                                                             
C  6.71 11.62  9.28                                                             
C  6.71 11.62 21.65                                                             
C  6.71 11.62 34.02                                                             
C  6.71 11.62 46.40                                                             
C  6.71 11.62 58.77                                                             
C 10.74  9.30  9.28                                                             
C 10.74  9.30 21.65                                                             
C 10.74  9.30 34.02                                                             
C 10.74  9.30 46.40                                                             
C 10.74  9.30 58.77                                                             
C 14.76  6.97  9.28                                                             
C 14.76  6.97 21.65                                                             
C 14.76  6.97 34.02                                                             
C 14.76  6.97 46.40                                                             
C 14.76  6.97 58.77                                                             
C 18.79  4.65  9.28                                                             
C 18.79  4.65 21.65                                                             
C 18.79  4.65 34.02                                                             
C 18.79  4.65 46.40                                                             
C 18.79  4.65 58.77                                                             
C 22.81  2.32  9.28                                                             
C 22.81  2.32 21.65                                                             
C 22.81  2.32 34.02                                                             
C 22.81  2.32 46.40                                                             
C 22.81  2.32 58.77                                                             
C 26.84  0.00  9.28                                                             
C 26.84  0.00 21.65                                                             
C 26.84  0.00 34.02                                                             
C 26.84  0.00 46.40                                                             
C 26.84  0.00 58.77                                                             
C  6.71 16.27  9.28                                                             
C  6.71 16.27 21.65                                                             
C  6.71 16.27 34.02                                                             
C  6.71 16.27 46.40                                                             
C  6.71 16.27 58.77                                                             
C 10.74 13.95  9.28                                                             
C 10.74 13.95 21.65                                                             
C 10.74 13.95 34.02                                                             
C 10.74 13.95 46.40                                                             
C 10.74 13.95 58.77                                                             
C 14.76 11.62  9.28                                                             
C 14.76 11.62 21.65                                                             
C 14.76 11.62 34.02                                                             
C 14.76 11.62 46.40                                                             
C 14.76 11.62 58.77                                                             
C 18.79  9.30  9.28                                                             
C 18.79  9.30 21.65                                                             
C 18.79  9.30 34.02                                                             
C 18.79  9.30 46.40                                                             
C 18.79  9.30 58.77                                                             
C 22.81  6.97  9.28                                                             
C 22.81  6.97 21.65                                                             
C 22.81  6.97 34.02                                                             
C 22.81  6.97 46.40                                                             
C 22.81  6.97 58.77                                                             
C 26.84  4.65  9.28                                                             
C 26.84  4.65 21.65                                                             
C 26.84  4.65 34.02                                                             
C 26.84  4.65 46.40                                                             
C 26.84  4.65 58.77                                                             
C 30.86  2.32  9.28                                                             
C 30.86  2.32 21.65                                                             
C 30.86  2.32 34.02                                                             
C 30.86  2.32 46.40                                                             
C 30.86  2.32 58.77                                                             
C 14.76 16.27  9.28                                                             
C 14.76 16.27 21.65                                                             
C 14.76 16.27 34.02                                                             
C 14.76 16.27 46.40                                                             
C 14.76 16.27 58.77                                                             
C 18.79 13.95  9.28                                                             
C 18.79 13.95 21.65                                                             
C 18.79 13.95 34.02                                                             
C 18.79 13.95 46.40                                                             
C 18.79 13.95 58.77                                                             
C 22.81 11.62  9.28                                                             
C 22.81 11.62 21.65                                                             
C 22.81 11.62 34.02                                                             
C 22.81 11.62 46.40                                                             
C 22.81 11.62 58.77                                                             
C 26.84  9.30  9.28                                                             
C 26.84  9.30 21.65                                                             
C 26.84  9.30 34.02                                                             
C 26.84  9.30 46.40                                                             
C 26.84  9.30 58.77                                                             
C 30.86  6.97  9.28                                                             
C 30.86  6.97 21.65                                                             
C 30.86  6.97 34.02                                                             
C 30.86  6.97 46.40                                                             
C 30.86  6.97 58.77                                                             
C 22.81 16.27  9.28                                                             
C 22.81 16.27 21.65                                                             
C 22.81 16.27 34.02                                                             
C 22.81 16.27 46.40                                                             
C 22.81 16.27 58.77                                                             
C 26.84 13.95  9.28                                                             
C 26.84 13.95 21.65                                                             
C 26.84 13.95 34.02                                                             
C 26.84 13.95 46.40                                                             
C 26.84 13.95 58.77                                                             
C 30.86 11.62  9.28                                                             
C 30.86 11.62 21.65                                                             
C 30.86 11.62 34.02                                                             
C 30.86 11.62 46.40                                                             
C 30.86 11.62 58.77                                                             
C 30.86 16.27  9.28                                                             
C 30.86 16.27 21.65                                                             
C 30.86 16.27 34.02                                                             
C 30.86 16.27 46.40                                                             
C 30.86 16.27 58.77                                                             
%ENDBLOCK POSITIONS_ABS                                                         

--------------------------------------------------------------------------------
-------------------------------- END INPUT FILE --------------------------------
--------------------------------------------------------------------------------


 
<<<<<<<<<<<<<<<<<<<<<<<<<<<<<<<<< Full system >>>>>>>>>>>>>>>>>>>>>>>>>>>>>>>>>>
<<<<<<<<<<<<<<<<<<<<<<<<<<< PAW Dataset information >>>>>>>>>>>>>>>>>>>>>>>>>>>
File: ~/pp/paw/c_pbe_abinit.paw; rc = 1.25 bohr; shape type =  3; rshape = 1.25 bohr;
  Atomic number:  6;  ionic charge:  4.000000
    Partial Wave 1: l = 0
    Partial Wave 2: l = 0
    Partial Wave 3: l = 1
    Partial Wave 4: l = 1
  Core charge supplied for Nonlinear Core Corrections
<<<<<<<<<<<<<<<<<<<<<<<<<<<<<<<<<<<<<<< >>>>>>>>>>>>>>>>>>>>>>>>>>>>>>>>>>>>>>>

-------------------------- Atom counting information ---------------------------
Symbol    Natoms    Nngwfs    Nprojs
  C        640      2560      5120
.......   ......    ......    ......
Totals:    640      2560      5120
--------------------------------------------------------------------------------

=============================== PSINC grid sizes ===============================
                      Simulation cell:   63 x  35 x 122
                              FFT-box:   63 x  35 x 117
                                  PPD:    7 x   5 x   1
Grid space d1=  0.511269841270a0 (KE cutoff=  29.06054Eh = 790.77748eV)
Grid space d2=  0.531142857143a0 (KE cutoff=  26.92659Eh = 732.70972eV)
Grid space d3=  0.507049180328a0 (KE cutoff=  29.54635Eh = 803.99708eV)
================================================================================
  
WARNING in cell_grid_distribute:
Average of less than one 23-slab per node, so workload cannot be
equally balanced between nodes.

********************* Fourier parallelisation information **********************
       Coarse grid (whole simulation cell) dimensions:     63    35   122
          Real-space ('12') slabs/node (min max mean):      3     4     3
         Recip-space ('23') slabs/node (min max mean):      0     1     0
********************************************************************************

********************* Fourier parallelisation information **********************
       Double grid (whole simulation cell) dimensions:    126    70   244
          Real-space ('12') slabs/node (min max mean):      6     7     6
         Recip-space ('23') slabs/node (min max mean):      1     2     1
********************************************************************************

Atom SCF Calculation for C  : Z (AE atom) =   6 : Z (PS atom) =   4
Config String: 2s2 2p2
Orbitals (num,occ):  2     2.00 2.00
Orbitals   (num,l):  2        0    1
Real-space Grid (nr,dr,rmax): 1293    0.0069659443    9.0000000000
Spherical Bessel Basis (nsws,lmax,cutoff):   37    2  161.4736382572
Confining potential (l,width,scale):  0    3.0000000000  100.0000000000
Confining potential (l,width,scale):  1    3.0000000000  100.0000000000
  1         -5.4283124456   -1.2935102156    4.5135257941   -1.5923561795
  2         -5.4241534249   -1.3636937911    4.4427183619   -1.5694122055
  3         -5.4326289545   -1.3865748334    4.4195613881   -1.5634604620
  4         -5.4368073263   -1.3933479911    4.4127833993   -1.5619680687
  5         -5.4388652800   -1.3969668505    4.4091714945   -1.5612108736
  6         -5.4399077146   -1.3988848872    4.4072644158   -1.5608235486
  7         -5.4404434041   -1.3998980658    4.4062615348   -1.5606243010
  8         -5.4407208401   -1.4004325328    4.4057350952   -1.5605214507
  9         -5.4408651553   -1.4007143559    4.4054589454   -1.5604682523
 10         -5.4409404127   -1.4008629743    4.4053141024   -1.5604407028
 11         -5.4409797152   -1.4009413770    4.4052381126   -1.5604264250
 12         -5.4410002582   -1.4009827603    4.4051982277   -1.5604190215
 13         -5.4410110012   -1.4010046176    4.4051772812   -1.5604151811
 14         -5.4410166211   -1.4010161701    4.4051662735   -1.5604131883
 15         -5.4410195614   -1.4010222805    4.4051604845   -1.5604121539
 16         -5.4410211001   -1.4010255150    4.4051574379   -1.5604116169
 17         -5.4410219052   -1.4010272285    4.4051558332   -1.5604113379
 18         -5.4410223266   -1.4010281369    4.4051549874   -1.5604111930
 19         -5.4410225472   -1.4010286190    4.4051545411   -1.5604111177
 20         -5.4410226626   -1.4010288749    4.4051543055   -1.5604110786
 21         -5.4410227231   -1.4010290110    4.4051541810   -1.5604110582
Atom SCF converged after  21 iterations to a total energy of     -5.44102272

Determining parallel strategy ...
... using space-filling curve
... NGWF load balancing: max     64;  min     64;  average     64
... Projector load balancing: max    128;  min    128;  average    128
... done
Calculating Ewald energy ...
              Ewald: real-space energy =    9513.649447
        Ewald: reciprocal-space energy =       0.059796
         Ewald: (sum_charge)**2 Energy =   11406.785290
         Ewald: (sum_charge**2) Energy =     901.785557
                          Ewald Energy =   -2794.861604
Basis initialisation ...... NGWF spheres initialised
... Projector spheres initialised
... NGWF tight boxes initialised
... Projector tight boxes initialised
... Tight-boxes gathered
... NGWF basis size (local,global):     694868  27907776
... PAW projector initialisation
... done

============================= Charge Augmentation ==============================
                           Aug box size:   11 x  11 x  11
================================================================================

========================== Sparse matrix information ===========================
                        Overlap matrix filling:  44.38%
                        Density kernel filling: 100.00%
              NGWF-Proj overlap matrix filling:  13.12%
                    Aug Overlap matrix filling:  47.81%
                    Hamiltonian matrix filling:  47.81%
                  NGWF diagonal matrix filling:   0.16%
                             KS matrix filling: 100.00% 
                           KSKS matrix filling: 100.00% 
================================================================================

Sparse matrix initialisation ... done
NGWF initialisation ...... done
============ Calculation of NGWF S^-1 using Hotelling algorithm ================ 
         Iteration  |  Frobenius norm and Maximum abs value    (of I-S*S_n^-1)   
               1       0.49180805E+02     0.97756048E+00
               2       0.48033990E+02     0.95691154E+00
               3       0.46286608E+02     0.92002638E+00
               4       0.43982189E+02     0.85922083E+00
               5       0.41196877E+02     0.76849259E+00
               6       0.37915227E+02     0.68681274E+00
               7       0.34418043E+02     0.63745943E+00
               8       0.31073992E+02     0.59660349E+00
               9       0.27603321E+02     0.55482930E+00
              10       0.23295510E+02     0.49146141E+00
              11       0.17655957E+02     0.38915580E+00
              12       0.10958651E+02     0.24873430E+00
              13       0.47870997E+01     0.10741067E+00
              14       0.10882068E+01     0.22669306E-01
              15       0.66747272E-01     0.12262865E-02
              16       0.31147039E-03     0.45315040E-05
              17       0.10009092E-07     0.91849417E-10
              18       0.82674777E-13     0.39968029E-14
================================================================================
Calculating core density ...
================================= Core Density =================================
               Core den box size:   21 x  21 x  21
================================================================================
 ... done
Up spin density kernel initialisation ...... done

Writing density kernel to file "3.2735064_GO_manual_4x64graphite.dkn" ... done

>>> Optimising kernel for current NGWFs:

--------------------------- Ensemble-DFT optimisation --------------------------
Running ScaLAPACK on   40 processor(s).

--------------------------------------------------------------------------------
  Iter                              Commutator    Free_energy(A=E-TS)     DeltaA
#    0                          0.000038885200   -3652.50869207193728  -3.65E+03

Step                       =       0.381966011250
Energy                     =   -3652.508653187683
Entropy (-TS)              =      -0.000038884357
Free energy (A=E-TS)       =   -3652.508692071937
Est. 0K Energy 0.5*(E+A)   =   -3652.508672629810
Residual Non-orthogonality =       0.000000000000
Residual N_electrons       =       0.000000000103

Spin          Integrated_Ne            Fermi_level     Delta_Fermi_level
   1      2559.999999999545         0.226125325001              2.26E-01

                           Spin 1          
     Orb      H-eigenvalues     Occupancies
       1 |    -0.4968478268    1.0000000000 | 
                          ------
    1276 |     0.1930837432    0.9999705771 | 
    1277 |     0.1936851463    0.9999644238 | 
    1278 |     0.1937013744    0.9999642411 | 
    1279 |     0.1941612166    0.9999586529 | 
    1280 |     0.1947693825    0.9999498992 | 
                 - Gap at zero temperature -
    1281 |     0.2599990571    0.0000226239 | 
    1282 |     0.2600122579    0.0000225298 | 
    1283 |     0.2601161208    0.0000218029 | 
    1284 |     0.2602266239    0.0000210553 | 
    1285 |     0.2602397412    0.0000209682 | 
                          ------
    2560 |     1.0586595630    0.0000000000 | 

                       |  Abs_value |  Threshold | Converged
     Delta_Free_energy |   3.65E+03 |   1.00E-06 |        No
     Delta_Energy      |   3.65E+03 |   1.00E-04 |        No
     Delta_Entropy     |   3.89E-05 |   1.00E-04 |       Yes
     Commutator        |   3.89E-05 |   1.00E-05 |        No
     Delta_Fermi_level |   2.26E-01 |   1.00E-03 |        No

  Line search of the free energy minimum:
  Step_type        Step             Free_energy   Predicted_free_energy
.   Initial    0.000000    -3652.50869207193728
.    Trial1    0.381966    -3652.51022943840326
.    Trial2    0.618034    -3652.50994352546422
. Quadratic    0.428521    -3652.51024752412650    -3652.51024780061107

--------------------------------------------------------------------------------
  Iter                              Commutator    Free_energy(A=E-TS)     DeltaA
#    1                          0.000018857407   -3652.51024752412650  -1.56E-03

Step                       =       0.428521169078
Energy                     =   -3652.510209302639
Entropy (-TS)              =      -0.000038221285
Free energy (A=E-TS)       =   -3652.510247524126
Est. 0K Energy 0.5*(E+A)   =   -3652.510228413383
Residual Non-orthogonality =       0.000000000000
Residual N_electrons       =      -0.000000000203

Spin          Integrated_Ne            Fermi_level     Delta_Fermi_level
   1      2560.000000000894         0.227593453912              1.47E-03

                           Spin 1          
     Orb      H-eigenvalues     Occupancies
       1 |    -0.4960310631    1.0000000000 | 
                          ------
    1276 |     0.1945604609    0.9999704972 | 
    1277 |     0.1950434242    0.9999656367 | 
    1278 |     0.1950600690    0.9999654556 | 
    1279 |     0.1956551066    0.9999583152 | 
    1280 |     0.1961455681    0.9999513328 | 
                 - Gap at zero temperature -
    1281 |     0.2615048891    0.0000223562 | 
    1282 |     0.2615345011    0.0000221481 | 
    1283 |     0.2616447102    0.0000213906 | 
    1284 |     0.2617377406    0.0000207714 | 
    1285 |     0.2617854352    0.0000204609 | 
                          ------
    2560 |     1.0610441662    0.0000000000 | 

                       |  Abs_value |  Threshold | Converged
     Delta_Free_energy |   1.56E-03 |   1.00E-06 |        No
     Delta_Energy      |   1.56E-03 |   1.00E-04 |        No
     Delta_Entropy     |   6.63E-07 |   1.00E-04 |       Yes
     Commutator        |   1.89E-05 |   1.00E-05 |        No
     Delta_Fermi_level |   1.47E-03 |   1.00E-03 |        No

  Line search of the free energy minimum:
  Step_type        Step             Free_energy   Predicted_free_energy
.   Initial    0.000000    -3652.51024752412650
.    Trial1    0.428521    -3652.51049740388817
.    Trial2    0.646807    -3652.51012926944350
. Quadratic    0.297351    -3652.51055808938327    -3652.51055777682677

--------------------------------------------------------------------------------
  Iter                              Commutator    Free_energy(A=E-TS)     DeltaA
#    2                          0.000012625482   -3652.51055808938327  -3.11E-04

Step                       =       0.297351482474
Energy                     =   -3652.510520229043
Entropy (-TS)              =      -0.000037860204
Free energy (A=E-TS)       =   -3652.510558089383
Est. 0K Energy 0.5*(E+A)   =   -3652.510539159213
Residual Non-orthogonality =       0.000000000000
Residual N_electrons       =      -0.000000000136

Spin          Integrated_Ne            Fermi_level     Delta_Fermi_level
   1      2560.000000000595         0.228140475425              5.47E-04

                           Spin 1          
     Orb      H-eigenvalues     Occupancies
       1 |    -0.4957213858    1.0000000000 | 
                          ------
    1276 |     0.1950618507    0.9999709192 | 
    1277 |     0.1955695636    0.9999658625 | 
    1278 |     0.1955879573    0.9999656637 | 
    1279 |     0.1961521294    0.9999589682 | 
    1280 |     0.1966689546    0.9999516947 | 
                 - Gap at zero temperature -
    1281 |     0.2620896123    0.0000220916 | 
    1282 |     0.2621212409    0.0000218721 | 
    1283 |     0.2622292096    0.0000211390 | 
    1284 |     0.2623271731    0.0000204951 | 
    1285 |     0.2623781304    0.0000201679 | 
                          ------
    2560 |     1.0619711907    0.0000000000 | 

                       |  Abs_value |  Threshold | Converged
     Delta_Free_energy |   3.11E-04 |   1.00E-06 |        No
     Delta_Energy      |   3.11E-04 |   1.00E-04 |        No
     Delta_Entropy     |   3.61E-07 |   1.00E-04 |       Yes
     Commutator        |   1.26E-05 |   1.00E-05 |        No
     Delta_Fermi_level |   5.47E-04 |   1.00E-03 |       Yes

  Line search of the free energy minimum:
  Step_type        Step             Free_energy   Predicted_free_energy
.   Initial    0.000000    -3652.51055808938327
.    Trial1    0.297351    -3652.51068871981352
.    Trial2    0.565739    -3652.51056309021851
. Quadratic    0.285625    -3652.51068894681612    -3652.51068894036052

--------------------------------------------------------------------------------
  Iter                              Commutator    Free_energy(A=E-TS)     DeltaA
#    3                          0.000008856693   -3652.51068894681612  -1.31E-04

Step                       =       0.285625242919
Energy                     =   -3652.510651320414
Entropy (-TS)              =      -0.000037626902
Free energy (A=E-TS)       =   -3652.510688946816
Est. 0K Energy 0.5*(E+A)   =   -3652.510670133615
Residual Non-orthogonality =       0.000000000000
Residual N_electrons       =       0.000000000500

Spin          Integrated_Ne            Fermi_level     Delta_Fermi_level
   1      2559.999999997814         0.228510729821              3.70E-04

                           Spin 1          
     Orb      H-eigenvalues     Occupancies
       1 |    -0.4955079164    1.0000000000 | 
                          ------
    1276 |     0.1954091693    0.9999711291 | 
    1277 |     0.1959207168    0.9999660678 | 
    1278 |     0.1959397363    0.9999658634 | 
    1279 |     0.1964984411    0.9999592772 | 
    1280 |     0.1970197128    0.9999519911 | 
                 - Gap at zero temperature -
    1281 |     0.2624818663    0.0000219387 | 
    1282 |     0.2625140371    0.0000217170 | 
    1283 |     0.2626221768    0.0000209879 | 
    1284 |     0.2627186033    0.0000203585 | 
    1285 |     0.2627707602    0.0000200259 | 
                          ------
    2560 |     1.0626064450    0.0000000000 | 

                       |  Abs_value |  Threshold | Converged
     Delta_Free_energy |   1.31E-04 |   1.00E-06 |        No
     Delta_Energy      |   1.31E-04 |   1.00E-04 |        No
     Delta_Entropy     |   2.33E-07 |   1.00E-04 |       Yes
     Commutator        |   8.86E-06 |   1.00E-05 |       Yes
     Delta_Fermi_level |   3.70E-04 |   1.00E-03 |       Yes

  Line search of the free energy minimum:
  Step_type        Step             Free_energy   Predicted_free_energy
.   Initial    0.000000    -3652.51068894681612
.    Trial1    0.285625    -3652.51075209884175
.    Trial2    0.558492    -3652.51068831924977
. Quadratic    0.278556    -3652.51075214084085    -3652.51075213953891

--------------------------------------------------------------------------------
  Iter                              Commutator    Free_energy(A=E-TS)     DeltaA
#    4                          0.000006393086   -3652.51075214084085  -6.32E-05

Step                       =       0.278556183541
Energy                     =   -3652.510714672287
Entropy (-TS)              =      -0.000037468193
Free energy (A=E-TS)       =   -3652.510752140841
[...]
 C   160 -- C   385       -0.09      5.37000
 C   159 -- C   384       -0.09      5.37000
 C   158 -- C   383       -0.09      5.37000
 C   157 -- C   382       -0.09      5.37000
 C   156 -- C   381       -0.09      5.37000
 C   155 -- C   355       -0.10      5.37000
 C   154 -- C   354       -0.10      5.37000
 C   153 -- C   353       -0.10      5.37000
 C   152 -- C   352       -0.10      5.37000
 C   151 -- C   351       -0.10      5.37000
 C   140 -- C   335       -0.10      5.37000
 C   139 -- C   334       -0.10      5.37000
 C   138 -- C   333       -0.10      5.37000
 C   137 -- C   332       -0.10      5.37000
 C   136 -- C   331       -0.10      5.37000
 C   115 -- C   325       -0.10      5.37000
 C   114 -- C   324       -0.10      5.37000
 C   113 -- C   323       -0.10      5.37000
 C   112 -- C   322       -0.10      5.37000
 C   111 -- C   321       -0.10      5.37000
 C   219 -- C   569       -0.09      5.37202
 C   218 -- C   568       -0.09      5.37202
 C   217 -- C   567       -0.09      5.37202
 C   216 -- C   566       -0.09      5.37202
 C   250 -- C   540       -0.09      5.37202
 C   249 -- C   539       -0.09      5.37202
 C   248 -- C   538       -0.09      5.37202
 C   247 -- C   537       -0.09      5.37202
 C   246 -- C   536       -0.09      5.37202
 C   220 -- C   570       -0.09      5.37202
 C   285 -- C   580       -0.09      5.37202
 C   284 -- C   579       -0.09      5.37202
 C   283 -- C   578       -0.09      5.37202
 C   282 -- C   577       -0.09      5.37202
 C   281 -- C   576       -0.09      5.37202
 C   260 -- C   605       -0.09      5.37202
 C   259 -- C   604       -0.09      5.37202
 C   258 -- C   603       -0.09      5.37202
 C   257 -- C   602       -0.09      5.37202
 C   256 -- C   601       -0.09      5.37202
 C   220 -- C   515       -0.09      5.37202
 C   219 -- C   514       -0.09      5.37202
 C   218 -- C   513       -0.09      5.37202
 C   217 -- C   512       -0.09      5.37202
 C   216 -- C   511       -0.09      5.37202
 C   195 -- C   540       -0.09      5.37202
 C   195 -- C   500       -0.09      5.37202
 C   194 -- C   539       -0.09      5.37202
 C   194 -- C   499       -0.09      5.37202
 C   193 -- C   538       -0.09      5.37202
 C   193 -- C   498       -0.09      5.37202
 C   192 -- C   537       -0.09      5.37202
 C   192 -- C   497       -0.09      5.37202
 C   191 -- C   536       -0.09      5.37202
 C   191 -- C   496       -0.09      5.37202
 C   180 -- C   515       -0.09      5.37202
 C   179 -- C   514       -0.09      5.37202
 C   178 -- C   513       -0.09      5.37202
 C   177 -- C   512       -0.09      5.37202
 C   176 -- C   511       -0.09      5.37202
 C    11 -- C   331       -0.09      5.37202
 C   205 -- C   550       -0.09      5.37202
 C   204 -- C   549       -0.09      5.37202
 C   203 -- C   548       -0.09      5.37202
 C   202 -- C   547       -0.09      5.37202
 C   201 -- C   546       -0.09      5.37202
 C    95 -- C   425       -0.09      5.37202
 C    95 -- C   365       -0.09      5.37202
 C    94 -- C   424       -0.09      5.37202
 C    94 -- C   364       -0.09      5.37202
 C    93 -- C   423       -0.09      5.37202
 C    93 -- C   363       -0.09      5.37202
 C    92 -- C   422       -0.09      5.37202
 C    92 -- C   362       -0.09      5.37202
 C    91 -- C   421       -0.09      5.37202
 C    91 -- C   361       -0.09      5.37202
 C    40 -- C   365       -0.09      5.37202
 C    39 -- C   364       -0.09      5.37202
 C    38 -- C   363       -0.09      5.37202
 C    37 -- C   362       -0.09      5.37202
 C    36 -- C   361       -0.09      5.37202
 C    15 -- C   335       -0.09      5.37202
 C    65 -- C   395       -0.09      5.37202
 C    65 -- C   345       -0.09      5.37202
 C    64 -- C   394       -0.09      5.37202
 C    64 -- C   344       -0.09      5.37202
 C    63 -- C   393       -0.09      5.37202
 C    30 -- C   355       -0.09      5.37202
 C    63 -- C   343       -0.09      5.37202
 C    62 -- C   392       -0.09      5.37202
 C    30 -- C   325       -0.09      5.37202
 C    14 -- C   334       -0.09      5.37202
 C    62 -- C   342       -0.09      5.37202
 C    61 -- C   391       -0.09      5.37202
 C    29 -- C   354       -0.09      5.37202
 C    61 -- C   341       -0.09      5.37202
 C    29 -- C   324       -0.09      5.37202
 C   260 -- C   550       -0.09      5.37202
 C   259 -- C   549       -0.09      5.37202
 C    28 -- C   353       -0.09      5.37202
 C   258 -- C   548       -0.09      5.37202
 C   257 -- C   547       -0.09      5.37202
 C   256 -- C   546       -0.09      5.37202
 C    28 -- C   323       -0.09      5.37202
 C    27 -- C   352       -0.09      5.37202
 C    13 -- C   333       -0.09      5.37202
 C    27 -- C   322       -0.09      5.37202
 C   120 -- C   395       -0.09      5.37202
 C    26 -- C   351       -0.09      5.37202
 C   119 -- C   394       -0.09      5.37202
 C   118 -- C   393       -0.09      5.37202
 C    55 -- C   335       -0.09      5.37202
 C   117 -- C   392       -0.09      5.37202
 C    26 -- C   321       -0.09      5.37202
 C   116 -- C   391       -0.09      5.37202
 C    54 -- C   334       -0.09      5.37202
 C    12 -- C   332       -0.09      5.37202
 C    53 -- C   333       -0.09      5.37202
 C   230 -- C   580       -0.09      5.37202
 C   230 -- C   525       -0.09      5.37202
 C   229 -- C   579       -0.09      5.37202
 C   229 -- C   524       -0.09      5.37202
 C   228 -- C   578       -0.09      5.37202
 C    52 -- C   332       -0.09      5.37202
 C   228 -- C   523       -0.09      5.37202
 C   227 -- C   577       -0.09      5.37202
 C   227 -- C   522       -0.09      5.37202
 C   226 -- C   576       -0.09      5.37202
 C   226 -- C   521       -0.09      5.37202
 C    51 -- C   331       -0.09      5.37202
 C    23 -- C   478       -0.09      5.37202
 C    49 -- C   469       -0.09      5.37202
 C    48 -- C   468       -0.09      5.37202
 C    47 -- C   467       -0.09      5.37202
 C    22 -- C   477       -0.09      5.37202
 C    46 -- C   466       -0.09      5.37202
 C    21 -- C   476       -0.09      5.37202
 C    85 -- C   355       -0.09      5.37202
 C    84 -- C   354       -0.09      5.37202
 C    83 -- C   353       -0.09      5.37202
 C    82 -- C   352       -0.09      5.37202
 C    81 -- C   351       -0.09      5.37202
 C    55 -- C   385       -0.09      5.37202
 C    54 -- C   384       -0.09      5.37202
 C    25 -- C   480       -0.09      5.37202
 C    53 -- C   383       -0.09      5.37202
 C    52 -- C   382       -0.09      5.37202
 C    51 -- C   381       -0.09      5.37202
 C    24 -- C   479       -0.09      5.37202
 C    50 -- C   470       -0.09      5.37202
 C    24 -- C   449       -0.09      5.37202
 C     6 -- C   416       -0.09      5.37202
 C    23 -- C   448       -0.09      5.37202
 C    22 -- C   447       -0.09      5.37202
 C    10 -- C   470       -0.09      5.37202
 C     5 -- C   450       -0.09      5.37202
 C    21 -- C   446       -0.09      5.37202
 C    10 -- C   420       -0.09      5.37202
 C     9 -- C   469       -0.09      5.37202
 C     9 -- C   419       -0.09      5.37202
 C     8 -- C   468       -0.09      5.37202
 C     4 -- C   449       -0.09      5.37202
 C   150 -- C   440       -0.09      5.37202
 C   149 -- C   439       -0.09      5.37202
 C   148 -- C   438       -0.09      5.37202
 C   147 -- C   437       -0.09      5.37202
 C     8 -- C   418       -0.09      5.37202
 C   146 -- C   436       -0.09      5.37202
 C     2 -- C   447       -0.09      5.37202
 C   135 -- C   460       -0.09      5.37202
 C     7 -- C   467       -0.09      5.37202
 C   134 -- C   459       -0.09      5.37202
 C   133 -- C   458       -0.09      5.37202
 C   132 -- C   457       -0.09      5.37202
 C   131 -- C   456       -0.09      5.37202
 C     7 -- C   417       -0.09      5.37202
 C     1 -- C   446       -0.09      5.37202
 C     6 -- C   466       -0.09      5.37202
 C    25 -- C   450       -0.09      5.37202
 C     3 -- C   448       -0.09      5.37202
 C   106 -- C   436       -0.09      5.37202
 C   106 -- C   376       -0.09      5.37202
 C    80 -- C   410       -0.09      5.37202
 C    79 -- C   409       -0.09      5.37202
 C    78 -- C   408       -0.09      5.37202
 C    77 -- C   407       -0.09      5.37202
 C    76 -- C   406       -0.09      5.37202
 C   135 -- C   410       -0.09      5.37202
 C   134 -- C   409       -0.09      5.37202
 C   133 -- C   408       -0.09      5.37202
 C   132 -- C   407       -0.09      5.37202
 C   131 -- C   406       -0.09      5.37202
 C   110 -- C   440       -0.09      5.37202
 C   110 -- C   380       -0.09      5.37202
 C   109 -- C   439       -0.09      5.37202
 C   109 -- C   379       -0.09      5.37202
 C   108 -- C   438       -0.09      5.37202
 C   108 -- C   378       -0.09      5.37202
 C   107 -- C   437       -0.09      5.37202
 C   107 -- C   377       -0.09      5.37202
 C   215 -- C   635       -0.10      5.38000
 C   214 -- C   634       -0.10      5.38000
 C   213 -- C   633       -0.10      5.38000
 C   212 -- C   632       -0.10      5.38000
 C   211 -- C   631       -0.10      5.38000
 C   190 -- C   620       -0.10      5.38000
 C   189 -- C   619       -0.10      5.38000
 C   188 -- C   618       -0.10      5.38000
 C   187 -- C   617       -0.10      5.38000
 C   186 -- C   616       -0.10      5.38000
 C   175 -- C   595       -0.10      5.38000
 C   174 -- C   594       -0.10      5.38000
 C   173 -- C   593       -0.10      5.38000
 C   172 -- C   592       -0.10      5.38000
 C   171 -- C   591       -0.10      5.38000
 C   245 -- C   640       -0.10      5.38000
 C   244 -- C   639       -0.10      5.38000
 C   243 -- C   638       -0.10      5.38000
 C   242 -- C   637       -0.10      5.38000
 C   241 -- C   636       -0.10      5.38000
==================================================


=================== Orbital energy and occupancy information ===================

      Total number of orbitals:    2560
        Occupancy sum (kernel):    1280.000000001
   Occupancy sum (eigenvalues):    1280.000000001
                 HOMO-LUMO gap:       0.000045035 Eh
                 Mid-gap level:       0.302781919 Eh

                        Orbital | Energy (Eh) | Occupancy
                            1    -0.453412442   1.0000000
                        .......   ...........   .........
                         1272     0.234874704   0.9999873
                         1273     0.235242126   0.9999858
                         1274     0.235345329   0.9999853
                         1275     0.239112546   0.9999517
                         1276     0.239113075   0.9999517
                         1277     0.239559783   0.9999444
                         1278     0.239560390   0.9999444
                         1279     0.239833126   0.9999394
                         1280     0.240264809   0.9999305
                         1281     0.302759401   0.0000386
                        ....... -- gap at 0K -- .........
                         1282     0.302804436   0.0000381
                         1283     0.303011503   0.0000356
                         1284     0.303056494   0.0000351
                         1285     0.303882784   0.0000272
                         1286     0.303894988   0.0000271
                         1287     0.304151934   0.0000250
                         1288     0.304164094   0.0000249
                         1289     0.304521173   0.0000220
                         1290     0.304605980   0.0000214
                         1291     0.304613098   0.0000217
                        .......   ...........   .........
                         2560     1.160491500   0.0000000

================================================================================

===================== Writing canonical molecular orbitals =====================
| Orbital  Energy (eV)  Norm     |
| HOMO      8.23850251  1.000000 | Writing "3.2735064_GO_manual_4x64graphite_HOMO.cube" ... done
Writing "3.2735064_GO_manual_4x64graphite_HOMO.dx" ... done
| LUMO      8.23972797  1.000000 | Writing "3.2735064_GO_manual_4x64graphite_LUMO.cube" ... done
Writing "3.2735064_GO_manual_4x64graphite_LUMO.dx" ... done
================================================================================
 
===================== Density of States (DOS) calculation ======================
Writing "3.2735064_GO_manual_4x64graphite_DOS.txt" ...  done
================================================================================
 
Writing bands to file "3.2735064_GO_manual_4x64graphite.val_bands" ... done
 
================ Projected Density of States (pDOS) calculation ================
 
Constructing AM resolved functions  ...... done
Writing NGWF plot files in formats: CUBE DX ...  done
 
Performing overlap integrals ...  done
 
Computing pDOS weights ...  done
 
All bands spilling parameter =   3.83 %
Occupancy-weighted spilling parameter =   0.85 %
 
 => Outputting data for OptaDOS <=
 
Writing pDOS weights to file "3.2735064_GO_manual_4x64graphite.val_pdos_bin" ... done
 
Writing band gradients to file "3.2735064_GO_manual_4x64graphite.val_dome_bin" ... done
 
Writing Castep output cell file to "3.2735064_GO_manual_4x64graphite-out.cell" ... done
 
 => Computing Gaussian smeared pDOS <= 
Writing "3.2735064_GO_manual_4x64graphite_PDOS.txt" ...  done
 
 => Computing Occupancy-weighted Gaussian smeared pDOS <= 
Writing "3.2735064_GO_manual_4x64graphite_occ_PDOS.txt" ...  done
  => Band centres: 
 S band centre of group 1:  -15.535773 eV
 P band centre of group 1:   -8.426841 eV
  Band centres done. <=
  => Integrated number of electrons in each AM band: 
 S num electrons of group 1:  574.366064
 P num electrons of group 1: 1963.995362
  Integrated number of electrons done. <=
================================================================================

------------------------------ TIMING INFORMATION ------------------------------
AVERAGE TIME:    4313.555s on     40 node(s)                                    
TOTAL TIME:      4313.556s on     40 node(s)                                    
================= AVERAGE TIMINGS FROM ALL NODES (CUMULATIVE) ==================
|| TAG                                    #calls    cpu time   %total  Gflops ||
|| work_imbalance                       :     1        0.00s   0.000%  ------ ||
|| paw_tcore_hartree_on_grid            :     1        0.01s   0.000%  ------ ||
|| paw_tcore_density                    :     1        0.01s   0.000%  ------ ||
|| paw_sphere_density_on_grid           :     1        0.01s   0.000%  ------ ||
|| sparse_set_to_garbage                :   171        0.03s   0.001%  ------ ||
|| paw_dij_hartree                      :   387        0.05s   0.001%  ------ ||
|| pseudo_make_structure_factor         :     1        0.05s   0.001%  ------ ||
|| basis_extract_function_from_box      :  1920        0.08s   0.002%  ------ ||
|| paw_species_calc_proj_prec_mat       :     1        0.12s   0.003%  ------ ||
|| paw_dataset_init                     :     1        0.19s   0.004%  ------ ||
|| density_init_guess_real              :     1        0.21s   0.005%  ------ ||
|| ngwfs_initialise_from_radial         :     2        0.67s   0.016%  ------ ||
|| restart_kernel_write                 :    16        0.68s   0.016%  ------ ||
|| sparse_init                          :     1        0.96s   0.022%  ------ ||
|| dense_normal_eigensolve              :     1        1.09s   0.025%  ------ ||
|| hartree_on_grid                      :   290        2.01s   0.047%  ------ ||
|| ewald_calculate_energy               :     1        2.43s   0.056%  ------ ||
|| projectors_init_fftbox_recip         :   151        2.95s   0.068%  ------ ||
|| fourier_apply_box_pair               :  2848        4.72s   0.109% 559.574 ||
|| basis_copy_function_to_box           : 27264        5.90s   0.137%  ------ ||
|| augmentation_screen_dij              :   295        6.46s   0.150%  ------ ||
|| sw_init                              :     1        6.73s   0.156%  ------ ||
|| sparse_embed_hotelling_invert_embed  :    29        8.96s   0.208%  ------ ||
|| ngwf_gradient_coeffs                 :    15       12.26s   0.284%  ------ ||
|| cell_grid_extract_box_real           : 11516       16.87s   0.391%  ------ ||
|| sparse_trace                         :  3520       19.72s   0.457%  ------ ||
|| fourier_apply_cell_backward          :  8961       22.79s   0.528%  44.968 ||
|| cell_grid_deposit_box_real           : 37296       24.71s   0.573%  ------ ||
|| fourier_apply_cell_forward           :  8382       25.14s   0.583%  38.137 ||
|| paw_dij_xc                           :   387       28.17s   0.653%  ------ ||
|| aug_nonlocal_mat                     :   372       41.79s   0.969%  ------ ||
|| hamiltonian_energy_components        :     3       50.13s   1.162%  ------ ||
|| density_fftbox_deposit_to_cell       : 18560       50.17s   1.163%  ------ ||
|| eigenstates_pdos                     :     1       54.65s   1.267%  ------ ||
|| augmentation_density_on_grid         :   290       57.40s   1.331%  ------ ||
|| eigenstates_calculate                :     1       58.88s   1.365%  ------ ||
|| function_ops_brappd_ketppd           :    60       65.68s   1.523%  ------ ||
|| projectors_func_ovlp_box             :    30       72.85s   1.689%  ------ ||
|| xc_energy_potential                  :   289       95.49s   2.214%  ------ ||
|| nlxc_vdw_energy                      :   578      102.20s   2.369%  ------ ||
|| restart_ngwfs_tightbox_output        :    14      103.97s   2.410%  ------ ||
|| properties_calculate                 :     1      105.51s   2.446%  ------ ||
|| integrals_kinetic                    :    29      108.43s   2.514%  ------ ||
|| dense_eigensolve                     :   257      129.39s   3.000%  ------ ||
|| potential_apply_to_ngwf_batch        :   364      143.61s   3.329%  ------ ||
|| sparse_product                       :  3495      160.94s   3.731%  ------ ||
|| basis_dot_function_with_box          : 8.961M     245.59s   5.693%  ------ ||
|| fourier_apply_box                    : 85472      266.70s   6.183% 979.013 ||
|| projectors_gradient_batch            :    60      282.31s   6.545%  ------ ||
|| edft_diag_ngwf_ham                   :   256      287.39s   6.662%  ------ ||
|| integrals_locpot_mat_els_batch       :   364      343.80s   7.970%  ------ ||
|| density_fftbox_interpolate_multiply  : 18560      359.96s   8.345%  ------ ||
|| projectors_grad_precond_batch        :    60      415.07s   9.623%  ------ ||
|| density_batch_interp_deposit         :  1160      455.28s  10.555%  ------ ||
|| integrals_locpot_dbl_grid            :    91      489.27s  11.343%  ------ ||
|| edft_apply_smearing_operator         :   256      560.61s  12.996%  ------ ||
|| basis_add_function_to_box            : 25.45M     668.69s  15.502%  ------ ||
|| ngwf_gradient_build_batch            :    60      743.01s  17.225%  ------ ||
|| ngwf_gradient_batch                  :    60      982.52s  22.777%  ------ ||
|| density_batch_row_sums               :  1160      996.15s  23.094%  ------ ||
|| ngwf_gradient_lnv                    :    15     1017.44s  23.587%  ------ ||
|| density_on_dbl_grid                  :   290     1465.43s  33.973%  ------ ||
|| hamiltonian_lhxc_calculate           :   285     1602.01s  37.139%  ------ ||
|| edft_calculate                       :    15     2652.23s  61.486%  ------ ||
|| ngwf_cg_optimise                     :     1     4187.47s  97.077%  ------ ||
|| total_time                           :     1     4313.55s 100.000%  ------ ||
================================================================================
Overhead of generating timer report: 
- 0 ms averaging over threads,
- 5 ms ensuring consistency across MPI ranks,
- 0 ms printing in order.

Job completed: 21-02-2020 14:26 (-0000)

