 +---------------------------------------------------------------+
 |                                                               |
 |        ####### #     # ####### ####### ####### ######         |
 |        #     # ##    # #          #    #       #     #        |
 |        #     # # #   # #          #    #       #     #        |
 |        #     # #  #  # #####      #    #####   ######         |
 |        #     # #   # # #          #    #       #              |
 |        #     # #    ## #          #    #       #              |
 |        ####### #     # #######    #    ####### #              |
 |                                                               |
 |        Linear-Scaling Ab Initio Total Energy Program          |
 |                                                               |
 |          Release for academic collaborators of ODG            |
 |                                             Version 5.3.2.12  |
 |                                                               |
 +---------------------------------------------------------------+
 |                                                               |
 |  Authors:                                                     |
 |  Jacek Dziedzic, Peter D. Haynes, Nicholas D. M. Hine,        |
 |  Arash. A. Mostofi, Mike C. Payne and Chris-Kriton Skylaris   |
 |                                                               |
 |  Contributors:                                                |
 |  J. Aarons, L. Andrinopoulos, P. W. Avraam, R. A. Bell,       |
 |  A. Bhandari, G. A. Bramley, R. J. Charlton, S. J. Clark,     |
 |  R. J. Clements, G. C. Constantinescu, F. Corsetti,           |
 |  N. Corsini, O. Dieguez, S. M. M. Dubois, K. K. B. Duff,      |
 |  J. M. Escartin, A. Greco, H. Helal, Q. O. Hill, L. P. Lee,   |
 |  J.-H. Li, E. B. Linscott, G. Moynihan, D. D. O`Regan,        |
 |  O. K. Okan, M. J. S. Phipps, C. J. Pickard,                  |
 |  J. C. A. Prentice, M. I. J. Probert, L. E. Ratcliff,         |
 |  M. Robinson, A. Ruiz Serrano, J. S. Spencer, E. W. Tait,     |
 |  G. Teobaldi, D. Turban, V. Vitale, K. A. Wilkinson,          |
 |  C. Weber, J. C. Womack, N. Yeung and T. J. Zuehlsdorff       |
 |                                                               |
 |                                   Copyright (c) 2004-2020     |
 |                                                               |
 |  Please cite:                                                 |
 |  "Introducing ONETEP: Linear-scaling density functional       |
 |   simulations on parallel computers".                         |
 |   C.-K. Skylaris, P. D. Haynes, A. A. Mostofi, M. C. Payne.   |
 |   J. Chem. Phys. 122 084119 (2005).                           |
 |                                                               |
 |          in all publications arising from your use of ONETEP. |
 |                                                               |
 +---------------------------------------------------------------+
 |                                                               |
 |   ONETEP is based on developments described in the following  |
 |   publications:                                               |
 |                                                               |
 |  "Nonorthogonal generalized Wannier function pseudopotential  |
 |   plane-wave method".                                         |
 |   C.-K. Skylaris, A. A. Mostofi, P. D. Haynes, O. Dieguez,    |
 |   M. C. Payne.                                                |
 |   Phys. Rev. B 66 035119 (2002).                              |
 |                                                               |
 |  "Preconditioned iterative minimization for linear-scaling    |
 |   electronic structure calculations".                         |
 |   A. A. Mostofi, P. D. Haynes, C.-K. Skylaris, M. C. Payne.   |
 |   J. Chem. Phys. 119(17), pp.8842-8848 (2003).                |
 |                                                               |
 |  "Total-energy calculations on a real space grid with         |
 |   localized functions and a plane-wave basis".                |
 |   A. A. Mostofi, C.-K. Skylaris, P. D. Haynes, M. C. Payne.   |
 |   Comput. Phys. Commun. 147, pp.788-802 (2002).               |
 |                                                               |
 |  "Accurate kinetic energy evaluation in electronic structure  |
 |   calculations with localized functions on real space grids"  |
 |   C.-K. Skylaris, A. A. Mostofi, P. D. Haynes, C. J. Pickard, |
 |   M. C. Payne.                                                |
 |   Comput. Phys. Commun. 140, pp.315-322 (2001).               |
 |                                                               |
 |  "Accurate ionic forces and geometry optimization in linear-  |
 |   scaling density-functional theory with local orbitals"      |
 |   N. D. M. Hine, M. Robinson, P. D. Haynes, C.-K. Skylaris,   |
 |   M. C. Payne, and A. A. Mostofi.                             |
 |   Phys. Rev. B 83 195102 (2011).                              |
 |                                                               |
 +---------------------------------------------------------------+

Job started: 24-02-2020 12:46 (-0000)
 
Reading parameters from file "3.3271687999999995_GO_manual_4x64graphite.dat" ...

WARNING: "cutoff_energy" not specified, but "psinc_spacing" specified.
         Using the latter to set the KE cutoff energy to  732.32021eV,
         thus *overriding* the default.

... done

If your calculation crashes here, before "Checking processes and threads..."
is displayed, then your stack size is insufficient.
If so, use "ulimit -s unlimited" at runtime.
You can disable this check with "check_stack_size F".

Checking processes and threads...
   Determining the default number of threads...
      No default threads set at compilation time: defaulting to 1.
      OpenMP library call suggests 4 threads.
      Hybrid MPI-OpenMP compilation detected.
      Number of MPI processes > 1.
      OMP_NUM_THREADS environment variable present and
      its value matches the one obtained from the OpenMP library call.
      Using this value as default.
      Default threads: 4
      Default applies to threads_max and threads_num_fftboxes.
      Settings in the input file override this default.
   ... done

   Running with 40 MPI processes.
   There are 10 MPI processes running on the same node as the root process.
   Each MPI process is using: 
               1 threads for simulation cell FFTs.
               1 threads for parallel FFT box operations.
               4 threads for loops over batched FFT box operations.
               4 threads in other parallel regions.
... done

Basic input checks...
Resetting ngwf_cg_rotate to TRUE for EDFT calculations
... done

Reading geometry and species blocks from file "3.3271687999999995_GO_manual_4x64graphite.dat" ...
    
  PSINC grid spacing along a1 set to   0.511215680000a0 from input file.
  PSINC grid spacing along a2 set to   0.531284090000a0 from input file.
  PSINC grid spacing along a3 set to   0.507052480000a0 from input file.
  Number of PPD points along a3 set to 1.  This is 
  the default value, it may have been provided also in the input file.
... done
 Writing xyz coordinates to file "3.3271687999999995_GO_manual_4x64graphite.xyz" ... done


--------------------------------------------------------------------------------
---------------------------------- INPUT FILE ----------------------------------
--------------------------------------------------------------------------------

task : singlepoint                                                              
do_properties : true                                                            
dx_format T                                                                     
edft T                                                                          
output_detail VERBOSE                                                           
write_xyz T                                                                     
xc_functional VV10                                                              
PSINC_SPACING 0.51121568 0.53128409 0.50705248                                  
paw T                                                                           
pdos_max_l = 2                                                                  
dos_smear  0.1 eV                                                               
popn_calculate T                                                                
PDOS_PSEUDOATOMIC T                                                             
PDOS_REDUCE_SWS F                                                               
PDOS_CONSTRUCT_BASIS F                                                          
PDOS_LOWDIN T                                                                   
PDOS_ORTH_ATOM_BLOCKS F                                                         
PDOS_LCAO_OPTIMIZE F                                                            
pdos_optados_output T                                                           
homo_plot 0                                                                     
lumo_plot 0                                                                     
homo_dens_plot -1                                                               
lumo_dens_plot -1                                                               
%BLOCK SPECIES                                                                  
C C 6 4 9.0                                                                     
%ENDBLOCK SPECIES                                                               
%BLOCK SPECIES_POT                                                              
C "~/pp/paw/c_pbe_abinit.paw"                                                   
%ENDBLOCK SPECIES_POT                                                           
%BLOCK SPECIES_ATOMIC_SET                                                       
C "SOLVE conf=2s2 2p2"                                                          
%ENDBLOCK SPECIES_ATOMIC_SET                                                    
%BLOCK LATTICE_CART                                                             
32.21  0.00  0.00                                                               
0.00 18.59  0.00                                                                
0.00  0.00 62.87                                                                
%ENDBLOCK LATTICE_CART                                                          
%BLOCK POSITIONS_ABS                                                            
C  0.00  0.00  3.14                                                             
C  0.00  0.00 15.72                                                             
C  0.00  0.00 28.29                                                             
C  0.00  0.00 40.87                                                             
C  0.00  0.00 53.44                                                             
C  0.00  4.65  3.14                                                             
C  0.00  4.65 15.72                                                             
C  0.00  4.65 28.29                                                             
C  0.00  4.65 40.87                                                             
C  0.00  4.65 53.44                                                             
C  4.03  2.32  3.14                                                             
C  4.03  2.32 15.72                                                             
C  4.03  2.32 28.29                                                             
C  4.03  2.32 40.87                                                             
C  4.03  2.32 53.44                                                             
C  8.05  0.00  3.14                                                             
C  8.05  0.00 15.72                                                             
C  8.05  0.00 28.29                                                             
C  8.05  0.00 40.87                                                             
C  8.05  0.00 53.44                                                             
C  0.00  9.30  3.14                                                             
C  0.00  9.30 15.72                                                             
C  0.00  9.30 28.29                                                             
C  0.00  9.30 40.87                                                             
C  0.00  9.30 53.44                                                             
C  4.03  6.97  3.14                                                             
C  4.03  6.97 15.72                                                             
C  4.03  6.97 28.29                                                             
C  4.03  6.97 40.87                                                             
C  4.03  6.97 53.44                                                             
C  8.05  4.65  3.14                                                             
C  8.05  4.65 15.72                                                             
C  8.05  4.65 28.29                                                             
C  8.05  4.65 40.87                                                             
C  8.05  4.65 53.44                                                             
C 12.08  2.32  3.14                                                             
C 12.08  2.32 15.72                                                             
C 12.08  2.32 28.29                                                             
C 12.08  2.32 40.87                                                             
C 12.08  2.32 53.44                                                             
C 16.10  0.00  3.14                                                             
C 16.10  0.00 15.72                                                             
C 16.10  0.00 28.29                                                             
C 16.10  0.00 40.87                                                             
C 16.10  0.00 53.44                                                             
C  0.00 13.95  3.14                                                             
C  0.00 13.95 15.72                                                             
C  0.00 13.95 28.29                                                             
C  0.00 13.95 40.87                                                             
C  0.00 13.95 53.44                                                             
C  4.03 11.62  3.14                                                             
C  4.03 11.62 15.72                                                             
C  4.03 11.62 28.29                                                             
C  4.03 11.62 40.87                                                             
C  4.03 11.62 53.44                                                             
C  8.05  9.30  3.14                                                             
C  8.05  9.30 15.72                                                             
C  8.05  9.30 28.29                                                             
C  8.05  9.30 40.87                                                             
C  8.05  9.30 53.44                                                             
C 12.08  6.97  3.14                                                             
C 12.08  6.97 15.72                                                             
C 12.08  6.97 28.29                                                             
C 12.08  6.97 40.87                                                             
C 12.08  6.97 53.44                                                             
C 16.10  4.65  3.14                                                             
C 16.10  4.65 15.72                                                             
C 16.10  4.65 28.29                                                             
C 16.10  4.65 40.87                                                             
C 16.10  4.65 53.44                                                             
C 20.13  2.32  3.14                                                             
C 20.13  2.32 15.72                                                             
C 20.13  2.32 28.29                                                             
C 20.13  2.32 40.87                                                             
C 20.13  2.32 53.44                                                             
C 24.16  0.00  3.14                                                             
C 24.16  0.00 15.72                                                             
C 24.16  0.00 28.29                                                             
C 24.16  0.00 40.87                                                             
C 24.16  0.00 53.44                                                             
C  4.03 16.27  3.14                                                             
C  4.03 16.27 15.72                                                             
C  4.03 16.27 28.29                                                             
C  4.03 16.27 40.87                                                             
C  4.03 16.27 53.44                                                             
C  8.05 13.95  3.14                                                             
C  8.05 13.95 15.72                                                             
C  8.05 13.95 28.29                                                             
C  8.05 13.95 40.87                                                             
C  8.05 13.95 53.44                                                             
C 12.08 11.62  3.14                                                             
C 12.08 11.62 15.72                                                             
C 12.08 11.62 28.29                                                             
C 12.08 11.62 40.87                                                             
C 12.08 11.62 53.44                                                             
C 16.10  9.30  3.14                                                             
C 16.10  9.30 15.72                                                             
C 16.10  9.30 28.29                                                             
C 16.10  9.30 40.87                                                             
C 16.10  9.30 53.44                                                             
C 20.13  6.97  3.14                                                             
C 20.13  6.97 15.72                                                             
C 20.13  6.97 28.29                                                             
C 20.13  6.97 40.87                                                             
C 20.13  6.97 53.44                                                             
C 24.16  4.65  3.14                                                             
C 24.16  4.65 15.72                                                             
C 24.16  4.65 28.29                                                             
C 24.16  4.65 40.87                                                             
C 24.16  4.65 53.44                                                             
C 28.18  2.32  3.14                                                             
C 28.18  2.32 15.72                                                             
C 28.18  2.32 28.29                                                             
C 28.18  2.32 40.87                                                             
C 28.18  2.32 53.44                                                             
C 12.08 16.27  3.14                                                             
C 12.08 16.27 15.72                                                             
C 12.08 16.27 28.29                                                             
C 12.08 16.27 40.87                                                             
C 12.08 16.27 53.44                                                             
C 16.10 13.95  3.14                                                             
C 16.10 13.95 15.72                                                             
C 16.10 13.95 28.29                                                             
C 16.10 13.95 40.87                                                             
C 16.10 13.95 53.44                                                             
C 20.13 11.62  3.14                                                             
C 20.13 11.62 15.72                                                             
C 20.13 11.62 28.29                                                             
C 20.13 11.62 40.87                                                             
C 20.13 11.62 53.44                                                             
C 24.16  9.30  3.14                                                             
C 24.16  9.30 15.72                                                             
C 24.16  9.30 28.29                                                             
C 24.16  9.30 40.87                                                             
C 24.16  9.30 53.44                                                             
C 28.18  6.97  3.14                                                             
C 28.18  6.97 15.72                                                             
C 28.18  6.97 28.29                                                             
C 28.18  6.97 40.87                                                             
C 28.18  6.97 53.44                                                             
C 20.13 16.27  3.14                                                             
C 20.13 16.27 15.72                                                             
C 20.13 16.27 28.29                                                             
C 20.13 16.27 40.87                                                             
C 20.13 16.27 53.44                                                             
C 24.16 13.95  3.14                                                             
C 24.16 13.95 15.72                                                             
C 24.16 13.95 28.29                                                             
C 24.16 13.95 40.87                                                             
C 24.16 13.95 53.44                                                             
C 28.18 11.62  3.14                                                             
C 28.18 11.62 15.72                                                             
C 28.18 11.62 28.29                                                             
C 28.18 11.62 40.87                                                             
C 28.18 11.62 53.44                                                             
C 28.18 16.27  3.14                                                             
C 28.18 16.27 15.72                                                             
C 28.18 16.27 28.29                                                             
C 28.18 16.27 40.87                                                             
C 28.18 16.27 53.44                                                             
C  0.00  0.00  9.43                                                             
C  0.00  0.00 22.01                                                             
C  0.00  0.00 34.58                                                             
C  0.00  0.00 47.16                                                             
C  0.00  0.00 59.73                                                             
C  0.00  4.65  9.43                                                             
C  0.00  4.65 22.01                                                             
C  0.00  4.65 34.58                                                             
C  0.00  4.65 47.16                                                             
C  0.00  4.65 59.73                                                             
C  4.03  2.32  9.43                                                             
C  4.03  2.32 22.01                                                             
C  4.03  2.32 34.58                                                             
C  4.03  2.32 47.16                                                             
C  4.03  2.32 59.73                                                             
C  8.05  0.00  9.43                                                             
C  8.05  0.00 22.01                                                             
C  8.05  0.00 34.58                                                             
C  8.05  0.00 47.16                                                             
C  8.05  0.00 59.73                                                             
C  0.00  9.30  9.43                                                             
C  0.00  9.30 22.01                                                             
C  0.00  9.30 34.58                                                             
C  0.00  9.30 47.16                                                             
C  0.00  9.30 59.73                                                             
C  4.03  6.97  9.43                                                             
C  4.03  6.97 22.01                                                             
C  4.03  6.97 34.58                                                             
C  4.03  6.97 47.16                                                             
C  4.03  6.97 59.73                                                             
C  8.05  4.65  9.43                                                             
C  8.05  4.65 22.01                                                             
C  8.05  4.65 34.58                                                             
C  8.05  4.65 47.16                                                             
C  8.05  4.65 59.73                                                             
C 12.08  2.32  9.43                                                             
C 12.08  2.32 22.01                                                             
C 12.08  2.32 34.58                                                             
C 12.08  2.32 47.16                                                             
C 12.08  2.32 59.73                                                             
C 16.10  0.00  9.43                                                             
C 16.10  0.00 22.01                                                             
C 16.10  0.00 34.58                                                             
C 16.10  0.00 47.16                                                             
C 16.10  0.00 59.73                                                             
C  0.00 13.95  9.43                                                             
C  0.00 13.95 22.01                                                             
C  0.00 13.95 34.58                                                             
C  0.00 13.95 47.16                                                             
C  0.00 13.95 59.73                                                             
C  4.03 11.62  9.43                                                             
C  4.03 11.62 22.01                                                             
C  4.03 11.62 34.58                                                             
C  4.03 11.62 47.16                                                             
C  4.03 11.62 59.73                                                             
C  8.05  9.30  9.43                                                             
C  8.05  9.30 22.01                                                             
C  8.05  9.30 34.58                                                             
C  8.05  9.30 47.16                                                             
C  8.05  9.30 59.73                                                             
C 12.08  6.97  9.43                                                             
C 12.08  6.97 22.01                                                             
C 12.08  6.97 34.58                                                             
C 12.08  6.97 47.16                                                             
C 12.08  6.97 59.73                                                             
C 16.10  4.65  9.43                                                             
C 16.10  4.65 22.01                                                             
C 16.10  4.65 34.58                                                             
C 16.10  4.65 47.16                                                             
C 16.10  4.65 59.73                                                             
C 20.13  2.32  9.43                                                             
C 20.13  2.32 22.01                                                             
C 20.13  2.32 34.58                                                             
C 20.13  2.32 47.16                                                             
C 20.13  2.32 59.73                                                             
C 24.16  0.00  9.43                                                             
C 24.16  0.00 22.01                                                             
C 24.16  0.00 34.58                                                             
C 24.16  0.00 47.16                                                             
C 24.16  0.00 59.73                                                             
C  4.03 16.27  9.43                                                             
C  4.03 16.27 22.01                                                             
C  4.03 16.27 34.58                                                             
C  4.03 16.27 47.16                                                             
C  4.03 16.27 59.73                                                             
C  8.05 13.95  9.43                                                             
C  8.05 13.95 22.01                                                             
C  8.05 13.95 34.58                                                             
C  8.05 13.95 47.16                                                             
C  8.05 13.95 59.73                                                             
C 12.08 11.62  9.43                                                             
C 12.08 11.62 22.01                                                             
C 12.08 11.62 34.58                                                             
C 12.08 11.62 47.16                                                             
C 12.08 11.62 59.73                                                             
C 16.10  9.30  9.43                                                             
C 16.10  9.30 22.01                                                             
C 16.10  9.30 34.58                                                             
C 16.10  9.30 47.16                                                             
C 16.10  9.30 59.73                                                             
C 20.13  6.97  9.43                                                             
C 20.13  6.97 22.01                                                             
C 20.13  6.97 34.58                                                             
C 20.13  6.97 47.16                                                             
C 20.13  6.97 59.73                                                             
C 24.16  4.65  9.43                                                             
C 24.16  4.65 22.01                                                             
C 24.16  4.65 34.58                                                             
C 24.16  4.65 47.16                                                             
C 24.16  4.65 59.73                                                             
C 28.18  2.32  9.43                                                             
C 28.18  2.32 22.01                                                             
C 28.18  2.32 34.58                                                             
C 28.18  2.32 47.16                                                             
C 28.18  2.32 59.73                                                             
C 12.08 16.27  9.43                                                             
C 12.08 16.27 22.01                                                             
C 12.08 16.27 34.58                                                             
C 12.08 16.27 47.16                                                             
C 12.08 16.27 59.73                                                             
C 16.10 13.95  9.43                                                             
C 16.10 13.95 22.01                                                             
C 16.10 13.95 34.58                                                             
C 16.10 13.95 47.16                                                             
C 16.10 13.95 59.73                                                             
C 20.13 11.62  9.43                                                             
C 20.13 11.62 22.01                                                             
C 20.13 11.62 34.58                                                             
C 20.13 11.62 47.16                                                             
C 20.13 11.62 59.73                                                             
C 24.16  9.30  9.43                                                             
C 24.16  9.30 22.01                                                             
C 24.16  9.30 34.58                                                             
C 24.16  9.30 47.16                                                             
C 24.16  9.30 59.73                                                             
C 28.18  6.97  9.43                                                             
C 28.18  6.97 22.01                                                             
C 28.18  6.97 34.58                                                             
C 28.18  6.97 47.16                                                             
C 28.18  6.97 59.73                                                             
C 20.13 16.27  9.43                                                             
C 20.13 16.27 22.01                                                             
C 20.13 16.27 34.58                                                             
C 20.13 16.27 47.16                                                             
C 20.13 16.27 59.73                                                             
C 24.16 13.95  9.43                                                             
C 24.16 13.95 22.01                                                             
C 24.16 13.95 34.58                                                             
C 24.16 13.95 47.16                                                             
C 24.16 13.95 59.73                                                             
C 28.18 11.62  9.43                                                             
C 28.18 11.62 22.01                                                             
C 28.18 11.62 34.58                                                             
C 28.18 11.62 47.16                                                             
C 28.18 11.62 59.73                                                             
C 28.18 16.27  9.43                                                             
C 28.18 16.27 22.01                                                             
C 28.18 16.27 34.58                                                             
C 28.18 16.27 47.16                                                             
C 28.18 16.27 59.73                                                             
C  1.34  2.32  3.14                                                             
C  1.34  2.32 15.72                                                             
C  1.34  2.32 28.29                                                             
C  1.34  2.32 40.87                                                             
C  1.34  2.32 53.44                                                             
C  5.37  0.00  3.14                                                             
C  5.37  0.00 15.72                                                             
C  5.37  0.00 28.29                                                             
C  5.37  0.00 40.87                                                             
C  5.37  0.00 53.44                                                             
C  1.34  6.97  3.14                                                             
C  1.34  6.97 15.72                                                             
C  1.34  6.97 28.29                                                             
C  1.34  6.97 40.87                                                             
C  1.34  6.97 53.44                                                             
C  5.37  4.65  3.14                                                             
C  5.37  4.65 15.72                                                             
C  5.37  4.65 28.29                                                             
C  5.37  4.65 40.87                                                             
C  5.37  4.65 53.44                                                             
C  9.39  2.32  3.14                                                             
C  9.39  2.32 15.72                                                             
C  9.39  2.32 28.29                                                             
C  9.39  2.32 40.87                                                             
C  9.39  2.32 53.44                                                             
C 13.42  0.00  3.14                                                             
C 13.42  0.00 15.72                                                             
C 13.42  0.00 28.29                                                             
C 13.42  0.00 40.87                                                             
C 13.42  0.00 53.44                                                             
C  1.34 11.62  3.14                                                             
C  1.34 11.62 15.72                                                             
C  1.34 11.62 28.29                                                             
C  1.34 11.62 40.87                                                             
C  1.34 11.62 53.44                                                             
C  5.37  9.30  3.14                                                             
C  5.37  9.30 15.72                                                             
C  5.37  9.30 28.29                                                             
C  5.37  9.30 40.87                                                             
C  5.37  9.30 53.44                                                             
C  9.39  6.97  3.14                                                             
C  9.39  6.97 15.72                                                             
C  9.39  6.97 28.29                                                             
C  9.39  6.97 40.87                                                             
C  9.39  6.97 53.44                                                             
C 13.42  4.65  3.14                                                             
C 13.42  4.65 15.72                                                             
C 13.42  4.65 28.29                                                             
C 13.42  4.65 40.87                                                             
C 13.42  4.65 53.44                                                             
C 17.45  2.32  3.14                                                             
C 17.45  2.32 15.72                                                             
C 17.45  2.32 28.29                                                             
C 17.45  2.32 40.87                                                             
C 17.45  2.32 53.44                                                             
C 21.47  0.00  3.14                                                             
C 21.47  0.00 15.72                                                             
C 21.47  0.00 28.29                                                             
C 21.47  0.00 40.87                                                             
C 21.47  0.00 53.44                                                             
C  1.34 16.27  3.14                                                             
C  1.34 16.27 15.72                                                             
C  1.34 16.27 28.29                                                             
C  1.34 16.27 40.87                                                             
C  1.34 16.27 53.44                                                             
C  5.37 13.95  3.14                                                             
C  5.37 13.95 15.72                                                             
C  5.37 13.95 28.29                                                             
C  5.37 13.95 40.87                                                             
C  5.37 13.95 53.44                                                             
C  9.39 11.62  3.14                                                             
C  9.39 11.62 15.72                                                             
C  9.39 11.62 28.29                                                             
C  9.39 11.62 40.87                                                             
C  9.39 11.62 53.44                                                             
C 13.42  9.30  3.14                                                             
C 13.42  9.30 15.72                                                             
C 13.42  9.30 28.29                                                             
C 13.42  9.30 40.87                                                             
C 13.42  9.30 53.44                                                             
C 17.45  6.97  3.14                                                             
C 17.45  6.97 15.72                                                             
C 17.45  6.97 28.29                                                             
C 17.45  6.97 40.87                                                             
C 17.45  6.97 53.44                                                             
C 21.47  4.65  3.14                                                             
C 21.47  4.65 15.72                                                             
C 21.47  4.65 28.29                                                             
C 21.47  4.65 40.87                                                             
C 21.47  4.65 53.44                                                             
C 25.50  2.32  3.14                                                             
C 25.50  2.32 15.72                                                             
C 25.50  2.32 28.29                                                             
C 25.50  2.32 40.87                                                             
C 25.50  2.32 53.44                                                             
C 29.52  0.00  3.14                                                             
C 29.52  0.00 15.72                                                             
C 29.52  0.00 28.29                                                             
C 29.52  0.00 40.87                                                             
C 29.52  0.00 53.44                                                             
C  9.39 16.27  3.14                                                             
C  9.39 16.27 15.72                                                             
C  9.39 16.27 28.29                                                             
C  9.39 16.27 40.87                                                             
C  9.39 16.27 53.44                                                             
C 13.42 13.95  3.14                                                             
C 13.42 13.95 15.72                                                             
C 13.42 13.95 28.29                                                             
C 13.42 13.95 40.87                                                             
C 13.42 13.95 53.44                                                             
C 17.45 11.62  3.14                                                             
C 17.45 11.62 15.72                                                             
C 17.45 11.62 28.29                                                             
C 17.45 11.62 40.87                                                             
C 17.45 11.62 53.44                                                             
C 21.47  9.30  3.14                                                             
C 21.47  9.30 15.72                                                             
C 21.47  9.30 28.29                                                             
C 21.47  9.30 40.87                                                             
C 21.47  9.30 53.44                                                             
C 25.50  6.97  3.14                                                             
C 25.50  6.97 15.72                                                             
C 25.50  6.97 28.29                                                             
C 25.50  6.97 40.87                                                             
C 25.50  6.97 53.44                                                             
C 29.52  4.65  3.14                                                             
C 29.52  4.65 15.72                                                             
C 29.52  4.65 28.29                                                             
C 29.52  4.65 40.87                                                             
C 29.52  4.65 53.44                                                             
C 17.45 16.27  3.14                                                             
C 17.45 16.27 15.72                                                             
C 17.45 16.27 28.29                                                             
C 17.45 16.27 40.87                                                             
C 17.45 16.27 53.44                                                             
C 21.47 13.95  3.14                                                             
C 21.47 13.95 15.72                                                             
C 21.47 13.95 28.29                                                             
C 21.47 13.95 40.87                                                             
C 21.47 13.95 53.44                                                             
C 25.50 11.62  3.14                                                             
C 25.50 11.62 15.72                                                             
C 25.50 11.62 28.29                                                             
C 25.50 11.62 40.87                                                             
C 25.50 11.62 53.44                                                             
C 29.52  9.30  3.14                                                             
C 29.52  9.30 15.72                                                             
C 29.52  9.30 28.29                                                             
C 29.52  9.30 40.87                                                             
C 29.52  9.30 53.44                                                             
C 25.50 16.27  3.14                                                             
C 25.50 16.27 15.72                                                             
C 25.50 16.27 28.29                                                             
C 25.50 16.27 40.87                                                             
C 25.50 16.27 53.44                                                             
C 29.52 13.95  3.14                                                             
C 29.52 13.95 15.72                                                             
C 29.52 13.95 28.29                                                             
C 29.52 13.95 40.87                                                             
C 29.52 13.95 53.44                                                             
C  2.68  0.00  9.43                                                             
C  2.68  0.00 22.01                                                             
C  2.68  0.00 34.58                                                             
C  2.68  0.00 47.16                                                             
C  2.68  0.00 59.73                                                             
C  2.68  4.65  9.43                                                             
C  2.68  4.65 22.01                                                             
C  2.68  4.65 34.58                                                             
C  2.68  4.65 47.16                                                             
C  2.68  4.65 59.73                                                             
C  6.71  2.32  9.43                                                             
C  6.71  2.32 22.01                                                             
C  6.71  2.32 34.58                                                             
C  6.71  2.32 47.16                                                             
C  6.71  2.32 59.73                                                             
C 10.74  0.00  9.43                                                             
C 10.74  0.00 22.01                                                             
C 10.74  0.00 34.58                                                             
C 10.74  0.00 47.16                                                             
C 10.74  0.00 59.73                                                             
C  2.68  9.30  9.43                                                             
C  2.68  9.30 22.01                                                             
C  2.68  9.30 34.58                                                             
C  2.68  9.30 47.16                                                             
C  2.68  9.30 59.73                                                             
C  6.71  6.97  9.43                                                             
C  6.71  6.97 22.01                                                             
C  6.71  6.97 34.58                                                             
C  6.71  6.97 47.16                                                             
C  6.71  6.97 59.73                                                             
C 10.74  4.65  9.43                                                             
C 10.74  4.65 22.01                                                             
C 10.74  4.65 34.58                                                             
C 10.74  4.65 47.16                                                             
C 10.74  4.65 59.73                                                             
C 14.76  2.32  9.43                                                             
C 14.76  2.32 22.01                                                             
C 14.76  2.32 34.58                                                             
C 14.76  2.32 47.16                                                             
C 14.76  2.32 59.73                                                             
C 18.79  0.00  9.43                                                             
C 18.79  0.00 22.01                                                             
C 18.79  0.00 34.58                                                             
C 18.79  0.00 47.16                                                             
C 18.79  0.00 59.73                                                             
C  2.68 13.95  9.43                                                             
C  2.68 13.95 22.01                                                             
C  2.68 13.95 34.58                                                             
C  2.68 13.95 47.16                                                             
C  2.68 13.95 59.73                                                             
C  6.71 11.62  9.43                                                             
C  6.71 11.62 22.01                                                             
C  6.71 11.62 34.58                                                             
C  6.71 11.62 47.16                                                             
C  6.71 11.62 59.73                                                             
C 10.74  9.30  9.43                                                             
C 10.74  9.30 22.01                                                             
C 10.74  9.30 34.58                                                             
C 10.74  9.30 47.16                                                             
C 10.74  9.30 59.73                                                             
C 14.76  6.97  9.43                                                             
C 14.76  6.97 22.01                                                             
C 14.76  6.97 34.58                                                             
C 14.76  6.97 47.16                                                             
C 14.76  6.97 59.73                                                             
C 18.79  4.65  9.43                                                             
C 18.79  4.65 22.01                                                             
C 18.79  4.65 34.58                                                             
C 18.79  4.65 47.16                                                             
C 18.79  4.65 59.73                                                             
C 22.81  2.32  9.43                                                             
C 22.81  2.32 22.01                                                             
C 22.81  2.32 34.58                                                             
C 22.81  2.32 47.16                                                             
C 22.81  2.32 59.73                                                             
C 26.84  0.00  9.43                                                             
C 26.84  0.00 22.01                                                             
C 26.84  0.00 34.58                                                             
C 26.84  0.00 47.16                                                             
C 26.84  0.00 59.73                                                             
C  6.71 16.27  9.43                                                             
C  6.71 16.27 22.01                                                             
C  6.71 16.27 34.58                                                             
C  6.71 16.27 47.16                                                             
C  6.71 16.27 59.73                                                             
C 10.74 13.95  9.43                                                             
C 10.74 13.95 22.01                                                             
C 10.74 13.95 34.58                                                             
C 10.74 13.95 47.16                                                             
C 10.74 13.95 59.73                                                             
C 14.76 11.62  9.43                                                             
C 14.76 11.62 22.01                                                             
C 14.76 11.62 34.58                                                             
C 14.76 11.62 47.16                                                             
C 14.76 11.62 59.73                                                             
C 18.79  9.30  9.43                                                             
C 18.79  9.30 22.01                                                             
C 18.79  9.30 34.58                                                             
C 18.79  9.30 47.16                                                             
C 18.79  9.30 59.73                                                             
C 22.81  6.97  9.43                                                             
C 22.81  6.97 22.01                                                             
C 22.81  6.97 34.58                                                             
C 22.81  6.97 47.16                                                             
C 22.81  6.97 59.73                                                             
C 26.84  4.65  9.43                                                             
C 26.84  4.65 22.01                                                             
C 26.84  4.65 34.58                                                             
C 26.84  4.65 47.16                                                             
C 26.84  4.65 59.73                                                             
C 30.86  2.32  9.43                                                             
C 30.86  2.32 22.01                                                             
C 30.86  2.32 34.58                                                             
C 30.86  2.32 47.16                                                             
C 30.86  2.32 59.73                                                             
C 14.76 16.27  9.43                                                             
C 14.76 16.27 22.01                                                             
C 14.76 16.27 34.58                                                             
C 14.76 16.27 47.16                                                             
C 14.76 16.27 59.73                                                             
C 18.79 13.95  9.43                                                             
C 18.79 13.95 22.01                                                             
C 18.79 13.95 34.58                                                             
C 18.79 13.95 47.16                                                             
C 18.79 13.95 59.73                                                             
C 22.81 11.62  9.43                                                             
C 22.81 11.62 22.01                                                             
C 22.81 11.62 34.58                                                             
C 22.81 11.62 47.16                                                             
C 22.81 11.62 59.73                                                             
C 26.84  9.30  9.43                                                             
C 26.84  9.30 22.01                                                             
C 26.84  9.30 34.58                                                             
C 26.84  9.30 47.16                                                             
C 26.84  9.30 59.73                                                             
C 30.86  6.97  9.43                                                             
C 30.86  6.97 22.01                                                             
C 30.86  6.97 34.58                                                             
C 30.86  6.97 47.16                                                             
C 30.86  6.97 59.73                                                             
C 22.81 16.27  9.43                                                             
C 22.81 16.27 22.01                                                             
C 22.81 16.27 34.58                                                             
C 22.81 16.27 47.16                                                             
C 22.81 16.27 59.73                                                             
C 26.84 13.95  9.43                                                             
C 26.84 13.95 22.01                                                             
C 26.84 13.95 34.58                                                             
C 26.84 13.95 47.16                                                             
C 26.84 13.95 59.73                                                             
C 30.86 11.62  9.43                                                             
C 30.86 11.62 22.01                                                             
C 30.86 11.62 34.58                                                             
C 30.86 11.62 47.16                                                             
C 30.86 11.62 59.73                                                             
C 30.86 16.27  9.43                                                             
C 30.86 16.27 22.01                                                             
C 30.86 16.27 34.58                                                             
C 30.86 16.27 47.16                                                             
C 30.86 16.27 59.73                                                             
%ENDBLOCK POSITIONS_ABS                                                         

--------------------------------------------------------------------------------
-------------------------------- END INPUT FILE --------------------------------
--------------------------------------------------------------------------------


 
<<<<<<<<<<<<<<<<<<<<<<<<<<<<<<<<< Full system >>>>>>>>>>>>>>>>>>>>>>>>>>>>>>>>>>
<<<<<<<<<<<<<<<<<<<<<<<<<<< PAW Dataset information >>>>>>>>>>>>>>>>>>>>>>>>>>>
File: ~/pp/paw/c_pbe_abinit.paw; rc = 1.25 bohr; shape type =  3; rshape = 1.25 bohr;
  Atomic number:  6;  ionic charge:  4.000000
    Partial Wave 1: l = 0
    Partial Wave 2: l = 0
    Partial Wave 3: l = 1
    Partial Wave 4: l = 1
  Core charge supplied for Nonlinear Core Corrections
<<<<<<<<<<<<<<<<<<<<<<<<<<<<<<<<<<<<<<< >>>>>>>>>>>>>>>>>>>>>>>>>>>>>>>>>>>>>>>

-------------------------- Atom counting information ---------------------------
Symbol    Natoms    Nngwfs    Nprojs
  C        640      2560      5120
.......   ......    ......    ......
Totals:    640      2560      5120
--------------------------------------------------------------------------------

=============================== PSINC grid sizes ===============================
                      Simulation cell:   63 x  35 x 124
                              FFT-box:   63 x  35 x 117
                                  PPD:    7 x   5 x   1
Grid space d1=  0.511269841270a0 (KE cutoff=  29.06054Eh = 790.77748eV)
Grid space d2=  0.531142857143a0 (KE cutoff=  26.92659Eh = 732.70972eV)
Grid space d3=  0.507016129032a0 (KE cutoff=  29.55020Eh = 804.10191eV)
================================================================================
  
WARNING in cell_grid_distribute:
Average of less than one 23-slab per node, so workload cannot be
equally balanced between nodes.

********************* Fourier parallelisation information **********************
       Coarse grid (whole simulation cell) dimensions:     63    35   124
          Real-space ('12') slabs/node (min max mean):      3     4     3
         Recip-space ('23') slabs/node (min max mean):      0     1     0
********************************************************************************

********************* Fourier parallelisation information **********************
       Double grid (whole simulation cell) dimensions:    126    70   248
          Real-space ('12') slabs/node (min max mean):      6     7     6
         Recip-space ('23') slabs/node (min max mean):      1     2     1
********************************************************************************

Atom SCF Calculation for C  : Z (AE atom) =   6 : Z (PS atom) =   4
Config String: 2s2 2p2
Orbitals (num,occ):  2     2.00 2.00
Orbitals   (num,l):  2        0    1
Real-space Grid (nr,dr,rmax): 1293    0.0069659443    9.0000000000
Spherical Bessel Basis (nsws,lmax,cutoff):   37    2  161.4736382572
Confining potential (l,width,scale):  0    3.0000000000  100.0000000000
Confining potential (l,width,scale):  1    3.0000000000  100.0000000000
  1         -5.4283124456   -1.2935102156    4.5135257941   -1.5923561795
  2         -5.4241534249   -1.3636937911    4.4427183619   -1.5694122055
  3         -5.4326289545   -1.3865748334    4.4195613881   -1.5634604620
  4         -5.4368073263   -1.3933479911    4.4127833993   -1.5619680687
  5         -5.4388652800   -1.3969668505    4.4091714945   -1.5612108736
  6         -5.4399077146   -1.3988848872    4.4072644158   -1.5608235486
  7         -5.4404434041   -1.3998980658    4.4062615348   -1.5606243010
  8         -5.4407208401   -1.4004325328    4.4057350952   -1.5605214507
  9         -5.4408651553   -1.4007143559    4.4054589454   -1.5604682523
 10         -5.4409404127   -1.4008629743    4.4053141024   -1.5604407028
 11         -5.4409797152   -1.4009413770    4.4052381126   -1.5604264250
 12         -5.4410002582   -1.4009827603    4.4051982277   -1.5604190215
 13         -5.4410110012   -1.4010046176    4.4051772812   -1.5604151811
 14         -5.4410166211   -1.4010161701    4.4051662735   -1.5604131883
 15         -5.4410195614   -1.4010222805    4.4051604845   -1.5604121539
 16         -5.4410211001   -1.4010255150    4.4051574379   -1.5604116169
 17         -5.4410219052   -1.4010272285    4.4051558332   -1.5604113379
 18         -5.4410223266   -1.4010281369    4.4051549874   -1.5604111930
 19         -5.4410225472   -1.4010286190    4.4051545411   -1.5604111177
 20         -5.4410226626   -1.4010288749    4.4051543055   -1.5604110786
 21         -5.4410227231   -1.4010290110    4.4051541810   -1.5604110582
Atom SCF converged after  21 iterations to a total energy of     -5.44102272

Determining parallel strategy ...
... using space-filling curve
... NGWF load balancing: max     64;  min     64;  average     64
... Projector load balancing: max    128;  min    128;  average    128
... done
Calculating Ewald energy ...
              Ewald: real-space energy =    9505.276468
        Ewald: reciprocal-space energy =       0.077735
         Ewald: (sum_charge)**2 Energy =   11345.372302
         Ewald: (sum_charge**2) Energy =     896.930434
                          Ewald Energy =   -2736.948535
Basis initialisation ...... NGWF spheres initialised
... Projector spheres initialised
... NGWF tight boxes initialised
... Projector tight boxes initialised
... Tight-boxes gathered
... NGWF basis size (local,global):     695092  27900064
... PAW projector initialisation
... done

============================= Charge Augmentation ==============================
                           Aug box size:   11 x  11 x  11
================================================================================

========================== Sparse matrix information ===========================
                        Overlap matrix filling:  44.38%
                        Density kernel filling: 100.00%
              NGWF-Proj overlap matrix filling:  13.12%
                    Aug Overlap matrix filling:  47.81%
                    Hamiltonian matrix filling:  47.81%
                  NGWF diagonal matrix filling:   0.16%
                             KS matrix filling: 100.00% 
                           KSKS matrix filling: 100.00% 
================================================================================

Sparse matrix initialisation ... done
NGWF initialisation ...... done
============ Calculation of NGWF S^-1 using Hotelling algorithm ================ 
         Iteration  |  Frobenius norm and Maximum abs value    (of I-S*S_n^-1)   
               1       0.49150561E+02     0.97717737E+00
               2       0.47982743E+02     0.95615340E+00
               3       0.46209590E+02     0.91855234E+00
               4       0.43880858E+02     0.85647299E+00
               5       0.41073908E+02     0.76391625E+00
               6       0.37778561E+02     0.68470081E+00
               7       0.34287769E+02     0.63581798E+00
               8       0.30953931E+02     0.59528404E+00
               9       0.27469024E+02     0.55317132E+00
              10       0.23121915E+02     0.48866799E+00
              11       0.17434136E+02     0.38483656E+00
              12       0.10721562E+02     0.24349331E+00
              13       0.46077190E+01     0.10323565E+00
              14       0.10145993E+01     0.21062776E-01
              15       0.58360151E-01     0.10666475E-02
              16       0.24047436E-03     0.34598589E-05
              17       0.60508110E-08     0.54615756E-10
              18       0.81782692E-13     0.39968029E-14
================================================================================
Calculating core density ...
================================= Core Density =================================
               Core den box size:   21 x  21 x  21
================================================================================
 ... done
Up spin density kernel initialisation ...... done

Writing density kernel to file "3.3271687999999995_GO_manual_4x64graphite.dkn" ... done

>>> Optimising kernel for current NGWFs:

--------------------------- Ensemble-DFT optimisation --------------------------
Running ScaLAPACK on   40 processor(s).

--------------------------------------------------------------------------------
  Iter                              Commutator    Free_energy(A=E-TS)     DeltaA
#    0                          0.000035971459   -3652.17037113200513  -3.65E+03

Step                       =       0.381966011250
Energy                     =   -3652.170334112504
Entropy (-TS)              =      -0.000037019888
Free energy (A=E-TS)       =   -3652.170371132005
Est. 0K Energy 0.5*(E+A)   =   -3652.170352622255
Residual Non-orthogonality =       0.000000000000
Residual N_electrons       =       0.000000000387

Spin          Integrated_Ne            Fermi_level     Delta_Fermi_level
   1      2559.999999998224         0.217989770567              2.18E-01

                           Spin 1          
     Orb      H-eigenvalues     Occupancies
       1 |    -0.5047116981    1.0000000000 | 
                          ------
    1276 |     0.1847197554    0.9999726247 | 
    1277 |     0.1853120296    0.9999669949 | 
    1278 |     0.1853397381    0.9999667048 | 
    1279 |     0.1857967797    0.9999615358 | 
    1280 |     0.1864092005    0.9999533297 | 
                 - Gap at zero temperature -
    1281 |     0.2521551259    0.0000206337 | 
    1282 |     0.2521638523    0.0000205769 | 
    1283 |     0.2522538695    0.0000200002 | 
    1284 |     0.2523816405    0.0000192094 | 
    1285 |     0.2523904115    0.0000191562 | 
                          ------
    2560 |     1.0504903174    0.0000000000 | 

                       |  Abs_value |  Threshold | Converged
     Delta_Free_energy |   3.65E+03 |   1.00E-06 |        No
     Delta_Energy      |   3.65E+03 |   1.00E-04 |        No
     Delta_Entropy     |   3.70E-05 |   1.00E-04 |       Yes
     Commutator        |   3.60E-05 |   1.00E-05 |        No
     Delta_Fermi_level |   2.18E-01 |   1.00E-03 |        No

  Line search of the free energy minimum:
  Step_type        Step             Free_energy   Predicted_free_energy
.   Initial    0.000000    -3652.17037113200513
.    Trial1    0.381966    -3652.17169633505227
.    Trial2    0.618034    -3652.17150566072769
. Quadratic    0.441644    -3652.17172073780739    -3652.17172098245510

--------------------------------------------------------------------------------
  Iter                              Commutator    Free_energy(A=E-TS)     DeltaA
#    1                          0.000018356030   -3652.17172073780739  -1.35E-03

Step                       =       0.441644144561
Energy                     =   -3652.171684274081
Entropy (-TS)              =      -0.000036464272
Free energy (A=E-TS)       =   -3652.171720737807
Est. 0K Energy 0.5*(E+A)   =   -3652.171702505944
Residual Non-orthogonality =       0.000000000000
Residual N_electrons       =       0.000000000545

Spin          Integrated_Ne            Fermi_level     Delta_Fermi_level
   1      2559.999999997514         0.219157644399              1.17E-03

                           Spin 1          
     Orb      H-eigenvalues     Occupancies
       1 |    -0.5042956970    1.0000000000 | 
                          ------
    1276 |     0.1859006506    0.9999725119 | 
    1277 |     0.1863790398    0.9999680295 | 
    1278 |     0.1863999705    0.9999678175 | 
    1279 |     0.1869953543    0.9999611611 | 
    1280 |     0.1874873533    0.9999546333 | 
                 - Gap at zero temperature -
    1281 |     0.2533478410    0.0000204724 | 
    1282 |     0.2533703786    0.0000203273 | 
    1283 |     0.2534677968    0.0000197115 | 
    1284 |     0.2535906207    0.0000189616 | 
    1285 |     0.2535998054    0.0000189067 | 
                          ------
    2560 |     1.0523064288    0.0000000000 | 

                       |  Abs_value |  Threshold | Converged
     Delta_Free_energy |   1.35E-03 |   1.00E-06 |        No
     Delta_Energy      |   1.35E-03 |   1.00E-04 |        No
     Delta_Entropy     |   5.56E-07 |   1.00E-04 |       Yes
     Commutator        |   1.84E-05 |   1.00E-05 |        No
     Delta_Fermi_level |   1.17E-03 |   1.00E-03 |        No

  Line search of the free energy minimum:
  Step_type        Step             Free_energy   Predicted_free_energy
.   Initial    0.000000    -3652.17172073780739
.    Trial1    0.441644    -3652.17193509506251
.    Trial2    0.654917    -3652.17155206259304
. Quadratic    0.290490    -3652.17201499977091    -3652.17201468217172

--------------------------------------------------------------------------------
  Iter                              Commutator    Free_energy(A=E-TS)     DeltaA
#    2                          0.000012012704   -3652.17201499977091  -2.94E-04

Step                       =       0.290490017625
Energy                     =   -3652.171978814763
Entropy (-TS)              =      -0.000036185234
Free energy (A=E-TS)       =   -3652.172014999771
Est. 0K Energy 0.5*(E+A)   =   -3652.171996907267
Residual Non-orthogonality =       0.000000000000
Residual N_electrons       =       0.000000000226

Spin          Integrated_Ne            Fermi_level     Delta_Fermi_level
   1      2559.999999998972         0.219560483062              4.03E-04

                           Spin 1          
     Orb      H-eigenvalues     Occupancies
       1 |    -0.5041511618    1.0000000000 | 
                          ------
    1276 |     0.1862619373    0.9999728702 | 
    1277 |     0.1867681404    0.9999681679 | 
    1278 |     0.1867897033    0.9999679504 | 
    1279 |     0.1873534610    0.9999617058 | 
    1280 |     0.1878738005    0.9999548675 | 
                 - Gap at zero temperature -
    1281 |     0.2537826578    0.0000202668 | 
    1282 |     0.2538079998    0.0000201052 | 
    1283 |     0.2539027009    0.0000195129 | 
    1284 |     0.2540314501    0.0000187355 | 
    1285 |     0.2540434628    0.0000186646 | 
                          ------
    2560 |     1.0529561199    0.0000000000 | 

                       |  Abs_value |  Threshold | Converged
     Delta_Free_energy |   2.94E-04 |   1.00E-06 |        No
     Delta_Energy      |   2.95E-04 |   1.00E-04 |        No
     Delta_Entropy     |   2.79E-07 |   1.00E-04 |       Yes
     Commutator        |   1.20E-05 |   1.00E-05 |        No
     Delta_Fermi_level |   4.03E-04 |   1.00E-03 |       Yes

  Line search of the free energy minimum:
  Step_type        Step             Free_energy   Predicted_free_energy
.   Initial    0.000000    -3652.17201499977091
.    Trial1    0.290490    -3652.17213623759471
.    Trial2    0.561499    -3652.17204522701195
. Quadratic    0.300816    -3652.17213637652185    -3652.17213638061457

--------------------------------------------------------------------------------
  Iter                              Commutator    Free_energy(A=E-TS)     DeltaA
#    3                          0.000008445590   -3652.17213637652185  -1.21E-04

Step                       =       0.300815826735
Energy                     =   -3652.172100388517
Entropy (-TS)              =      -0.000035988563
Free energy (A=E-TS)       =   -3652.172136376522
Est. 0K Energy 0.5*(E+A)   =   -3652.172118382519
Residual Non-orthogonality =       0.000000000000
Residual N_electrons       =       0.000000000558

Spin          Integrated_Ne            Fermi_level     Delta_Fermi_level
   1      2559.999999997460         0.219857202986              2.97E-04

                           Spin 1          
     Orb      H-eigenvalues     Occupancies
       1 |    -0.5040397059    1.0000000000 | 
                          ------
    1276 |     0.1865372799    0.9999730527 | 
    1277 |     0.1870485583    0.9999683313 | 
    1278 |     0.1870705731    0.9999681104 | 
    1279 |     0.1876280098    0.9999619729 | 
    1280 |     0.1881538650    0.9999551043 | 
                 - Gap at zero temperature -
    1281 |     0.2540988048    0.0000201428 | 
    1282 |     0.2541254125    0.0000199743 | 
    1283 |     0.2542196562    0.0000193886 | 
    1284 |     0.2543477161    0.0000186202 | 
    1285 |     0.2543615940    0.0000185388 | 
                          ------
    2560 |     1.0534441622    0.0000000000 | 

                       |  Abs_value |  Threshold | Converged
     Delta_Free_energy |   1.21E-04 |   1.00E-06 |        No
     Delta_Energy      |   1.22E-04 |   1.00E-04 |        No
     Delta_Entropy     |   1.97E-07 |   1.00E-04 |       Yes
     Commutator        |   8.45E-06 |   1.00E-05 |       Yes
     Delta_Fermi_level |   2.97E-04 |   1.00E-03 |       Yes

  Line search of the free energy minimum:
  Step_type        Step             Free_energy   Predicted_free_energy
.   Initial    0.000000    -3652.17213637652185
.    Trial1    0.300816    -3652.17219402895034
.    Trial2    0.567880    -3652.17212974305312
. Quadratic    0.276269    -3652.17219449153345    -3652.17219448770720

--------------------------------------------------------------------------------
  Iter                              Commutator    Free_energy(A=E-TS)     DeltaA
#    4                          0.000005987099   -3652.17219449153345  -5.81E-05

Step                       =       0.276269090343
Energy                     =   -3652.172158625990
Entropy (-TS)              =      -0.000035865561
[...]
 C   158 -- C   383       -0.09      5.37000
 C   157 -- C   382       -0.09      5.37000
 C   156 -- C   381       -0.09      5.37000
 C   155 -- C   355       -0.10      5.37000
 C   154 -- C   354       -0.10      5.37000
 C   153 -- C   353       -0.10      5.37000
 C   152 -- C   352       -0.10      5.37000
 C   151 -- C   351       -0.10      5.37000
 C   140 -- C   335       -0.10      5.37000
 C   139 -- C   334       -0.10      5.37000
 C   138 -- C   333       -0.10      5.37000
 C   137 -- C   332       -0.10      5.37000
 C   136 -- C   331       -0.10      5.37000
 C   115 -- C   325       -0.10      5.37000
 C   114 -- C   324       -0.10      5.37000
 C   113 -- C   323       -0.10      5.37000
 C   112 -- C   322       -0.10      5.37000
 C   111 -- C   321       -0.10      5.37000
 C   219 -- C   569       -0.09      5.37202
 C   218 -- C   568       -0.09      5.37202
 C   217 -- C   567       -0.09      5.37202
 C   216 -- C   566       -0.09      5.37202
 C   250 -- C   540       -0.09      5.37202
 C   249 -- C   539       -0.09      5.37202
 C   248 -- C   538       -0.09      5.37202
 C   247 -- C   537       -0.09      5.37202
 C   246 -- C   536       -0.09      5.37202
 C   220 -- C   570       -0.09      5.37202
 C   285 -- C   580       -0.09      5.37202
 C   284 -- C   579       -0.09      5.37202
 C   283 -- C   578       -0.09      5.37202
 C   282 -- C   577       -0.09      5.37202
 C   281 -- C   576       -0.09      5.37202
 C   260 -- C   605       -0.09      5.37202
 C   259 -- C   604       -0.09      5.37202
 C   258 -- C   603       -0.09      5.37202
 C   257 -- C   602       -0.09      5.37202
 C   256 -- C   601       -0.09      5.37202
 C   220 -- C   515       -0.09      5.37202
 C   219 -- C   514       -0.09      5.37202
 C   218 -- C   513       -0.09      5.37202
 C   217 -- C   512       -0.09      5.37202
 C   216 -- C   511       -0.09      5.37202
 C   195 -- C   540       -0.09      5.37202
 C   195 -- C   500       -0.09      5.37202
 C   194 -- C   539       -0.09      5.37202
 C   194 -- C   499       -0.09      5.37202
 C   193 -- C   538       -0.09      5.37202
 C   193 -- C   498       -0.09      5.37202
 C   192 -- C   537       -0.09      5.37202
 C   192 -- C   497       -0.09      5.37202
 C   191 -- C   536       -0.09      5.37202
 C   191 -- C   496       -0.09      5.37202
 C   180 -- C   515       -0.09      5.37202
 C   179 -- C   514       -0.09      5.37202
 C   178 -- C   513       -0.09      5.37202
 C   177 -- C   512       -0.09      5.37202
 C   176 -- C   511       -0.09      5.37202
 C    11 -- C   331       -0.09      5.37202
 C   205 -- C   550       -0.09      5.37202
 C   204 -- C   549       -0.09      5.37202
 C   203 -- C   548       -0.09      5.37202
 C   202 -- C   547       -0.09      5.37202
 C   201 -- C   546       -0.09      5.37202
 C    95 -- C   425       -0.09      5.37202
 C    95 -- C   365       -0.09      5.37202
 C    94 -- C   424       -0.09      5.37202
 C    94 -- C   364       -0.09      5.37202
 C    93 -- C   423       -0.09      5.37202
 C    93 -- C   363       -0.09      5.37202
 C    92 -- C   422       -0.09      5.37202
 C    92 -- C   362       -0.09      5.37202
 C    91 -- C   421       -0.09      5.37202
 C    91 -- C   361       -0.09      5.37202
 C    40 -- C   365       -0.09      5.37202
 C    39 -- C   364       -0.09      5.37202
 C    38 -- C   363       -0.09      5.37202
 C    37 -- C   362       -0.09      5.37202
 C    36 -- C   361       -0.09      5.37202
 C    15 -- C   335       -0.09      5.37202
 C    65 -- C   395       -0.09      5.37202
 C    65 -- C   345       -0.09      5.37202
 C    64 -- C   394       -0.09      5.37202
 C    64 -- C   344       -0.09      5.37202
 C    63 -- C   393       -0.09      5.37202
 C    30 -- C   355       -0.09      5.37202
 C    63 -- C   343       -0.09      5.37202
 C    62 -- C   392       -0.09      5.37202
 C    30 -- C   325       -0.09      5.37202
 C    14 -- C   334       -0.09      5.37202
 C    62 -- C   342       -0.09      5.37202
 C    61 -- C   391       -0.09      5.37202
 C    29 -- C   354       -0.09      5.37202
 C    61 -- C   341       -0.09      5.37202
 C    29 -- C   324       -0.09      5.37202
 C   260 -- C   550       -0.09      5.37202
 C   259 -- C   549       -0.09      5.37202
 C    28 -- C   353       -0.09      5.37202
 C   258 -- C   548       -0.09      5.37202
 C   257 -- C   547       -0.09      5.37202
 C   256 -- C   546       -0.09      5.37202
 C    28 -- C   323       -0.09      5.37202
 C    27 -- C   352       -0.09      5.37202
 C    13 -- C   333       -0.09      5.37202
 C    27 -- C   322       -0.09      5.37202
 C   120 -- C   395       -0.09      5.37202
 C    26 -- C   351       -0.09      5.37202
 C   119 -- C   394       -0.09      5.37202
 C   118 -- C   393       -0.09      5.37202
 C    55 -- C   335       -0.09      5.37202
 C   117 -- C   392       -0.09      5.37202
 C    26 -- C   321       -0.09      5.37202
 C   116 -- C   391       -0.09      5.37202
 C    54 -- C   334       -0.09      5.37202
 C    12 -- C   332       -0.09      5.37202
 C    53 -- C   333       -0.09      5.37202
 C   230 -- C   580       -0.09      5.37202
 C   230 -- C   525       -0.09      5.37202
 C   229 -- C   579       -0.09      5.37202
 C   229 -- C   524       -0.09      5.37202
 C   228 -- C   578       -0.09      5.37202
 C    52 -- C   332       -0.09      5.37202
 C   228 -- C   523       -0.09      5.37202
 C   227 -- C   577       -0.09      5.37202
 C   227 -- C   522       -0.09      5.37202
 C   226 -- C   576       -0.09      5.37202
 C   226 -- C   521       -0.09      5.37202
 C    51 -- C   331       -0.09      5.37202
 C    23 -- C   478       -0.09      5.37202
 C    49 -- C   469       -0.09      5.37202
 C    48 -- C   468       -0.09      5.37202
 C    47 -- C   467       -0.09      5.37202
 C    22 -- C   477       -0.09      5.37202
 C    46 -- C   466       -0.09      5.37202
 C    21 -- C   476       -0.09      5.37202
 C    85 -- C   355       -0.09      5.37202
 C    84 -- C   354       -0.09      5.37202
 C    83 -- C   353       -0.09      5.37202
 C    82 -- C   352       -0.09      5.37202
 C    81 -- C   351       -0.09      5.37202
 C    55 -- C   385       -0.09      5.37202
 C    54 -- C   384       -0.09      5.37202
 C    25 -- C   480       -0.09      5.37202
 C    53 -- C   383       -0.09      5.37202
 C    52 -- C   382       -0.09      5.37202
 C    51 -- C   381       -0.09      5.37202
 C    24 -- C   479       -0.09      5.37202
 C    50 -- C   470       -0.09      5.37202
 C    24 -- C   449       -0.09      5.37202
 C     6 -- C   416       -0.09      5.37202
 C    23 -- C   448       -0.09      5.37202
 C    22 -- C   447       -0.09      5.37202
 C    10 -- C   470       -0.09      5.37202
 C     5 -- C   450       -0.09      5.37202
 C    21 -- C   446       -0.09      5.37202
 C    10 -- C   420       -0.09      5.37202
 C     9 -- C   469       -0.09      5.37202
 C     9 -- C   419       -0.09      5.37202
 C     8 -- C   468       -0.09      5.37202
 C     4 -- C   449       -0.09      5.37202
 C   150 -- C   440       -0.09      5.37202
 C   149 -- C   439       -0.09      5.37202
 C   148 -- C   438       -0.09      5.37202
 C   147 -- C   437       -0.09      5.37202
 C     8 -- C   418       -0.09      5.37202
 C   146 -- C   436       -0.09      5.37202
 C     2 -- C   447       -0.09      5.37202
 C   135 -- C   460       -0.09      5.37202
 C     7 -- C   467       -0.09      5.37202
 C   134 -- C   459       -0.09      5.37202
 C   133 -- C   458       -0.09      5.37202
 C   132 -- C   457       -0.09      5.37202
 C   131 -- C   456       -0.09      5.37202
 C     7 -- C   417       -0.09      5.37202
 C     1 -- C   446       -0.09      5.37202
 C     6 -- C   466       -0.09      5.37202
 C    25 -- C   450       -0.09      5.37202
 C     3 -- C   448       -0.09      5.37202
 C   106 -- C   436       -0.09      5.37202
 C   106 -- C   376       -0.09      5.37202
 C    80 -- C   410       -0.09      5.37202
 C    79 -- C   409       -0.09      5.37202
 C    78 -- C   408       -0.09      5.37202
 C    77 -- C   407       -0.09      5.37202
 C    76 -- C   406       -0.09      5.37202
 C   135 -- C   410       -0.09      5.37202
 C   134 -- C   409       -0.09      5.37202
 C   133 -- C   408       -0.09      5.37202
 C   132 -- C   407       -0.09      5.37202
 C   131 -- C   406       -0.09      5.37202
 C   110 -- C   440       -0.09      5.37202
 C   110 -- C   380       -0.09      5.37202
 C   109 -- C   439       -0.09      5.37202
 C   109 -- C   379       -0.09      5.37202
 C   108 -- C   438       -0.09      5.37202
 C   108 -- C   378       -0.09      5.37202
 C   107 -- C   437       -0.09      5.37202
 C   107 -- C   377       -0.09      5.37202
 C   215 -- C   635       -0.10      5.38000
 C   214 -- C   634       -0.10      5.38000
 C   213 -- C   633       -0.10      5.38000
 C   212 -- C   632       -0.10      5.38000
 C   211 -- C   631       -0.10      5.38000
 C   190 -- C   620       -0.10      5.38000
 C   189 -- C   619       -0.10      5.38000
 C   188 -- C   618       -0.10      5.38000
 C   187 -- C   617       -0.10      5.38000
 C   186 -- C   616       -0.10      5.38000
 C   175 -- C   595       -0.10      5.38000
 C   174 -- C   594       -0.10      5.38000
 C   173 -- C   593       -0.10      5.38000
 C   172 -- C   592       -0.10      5.38000
 C   171 -- C   591       -0.10      5.38000
 C   245 -- C   640       -0.10      5.38000
 C   244 -- C   639       -0.10      5.38000
 C   243 -- C   638       -0.10      5.38000
 C   242 -- C   637       -0.10      5.38000
 C   241 -- C   636       -0.10      5.38000
==================================================


=================== Orbital energy and occupancy information ===================

      Total number of orbitals:    2560
        Occupancy sum (kernel):    1279.999999999
   Occupancy sum (eigenvalues):    1279.999999999
                 HOMO-LUMO gap:       0.062827396 Eh
                 Mid-gap level:       0.264610523 Eh

                        Orbital | Energy (Eh) | Occupancy
                            1    -0.459565001   1.0000000
                        .......   ...........   .........
                         1271     0.227697746   0.9999880
                         1272     0.227706260   0.9999879
                         1273     0.228168818   0.9999860
                         1274     0.228177338   0.9999860
                         1275     0.231870419   0.9999550
                         1276     0.231960549   0.9999537
                         1277     0.232322354   0.9999481
                         1278     0.232412549   0.9999466
                         1279     0.232758282   0.9999404
                         1280     0.233196825   0.9999316
                        ....... -- gap at 0K -- .........
                         1281     0.296024221   0.0000353
                         1282     0.296034097   0.0000352
                         1283     0.296275258   0.0000326
                         1284     0.296285416   0.0000325
                         1285     0.296988898   0.0000261
                         1286     0.297074998   0.0000254
                         1287     0.297256173   0.0000240
                         1288     0.297342359   0.0000233
                         1289     0.297581331   0.0000215
                         1290     0.297584311   0.0000215
                        .......   ...........   .........
                         2560     1.153435457   0.0000000

================================================================================

===================== Writing canonical molecular orbitals =====================
| Orbital  Energy (eV)  Norm     |
| HOMO      6.34560849  1.000000 | Writing "3.3271687999999995_GO_manual_4x64graphite_HOMO.cube" ... done
Writing "3.3271687999999995_GO_manual_4x64graphite_HOMO.dx" ... done
| LUMO      8.05522893  1.000000 | Writing "3.3271687999999995_GO_manual_4x64graphite_LUMO.cube" ... done
Writing "3.3271687999999995_GO_manual_4x64graphite_LUMO.dx" ... done
================================================================================
 
===================== Density of States (DOS) calculation ======================
Writing "3.3271687999999995_GO_manual_4x64graphite_DOS.txt" ...  done
================================================================================
 
Writing bands to file "3.3271687999999995_GO_manual_4x64graphite.val_bands" ... done
 
================ Projected Density of States (pDOS) calculation ================
 
Constructing AM resolved functions  ...... done
Writing NGWF plot files in formats: CUBE DX ...  done
 
Performing overlap integrals ...  done
 
Computing pDOS weights ...  done
 
All bands spilling parameter =   3.80 %
Occupancy-weighted spilling parameter =   0.86 %
 
 => Outputting data for OptaDOS <=
 
Writing pDOS weights to file "3.3271687999999995_GO_manual_4x64graphite.val_pdos_bin" ... done
 
Writing band gradients to file "3.3271687999999995_GO_manual_4x64graphite.val_dome_bin" ... done
 
Writing Castep output cell file to "3.3271687999999995_GO_manual_4x64graphite-out.cell" ... done
 
 => Computing Gaussian smeared pDOS <= 
Writing "3.3271687999999995_GO_manual_4x64graphite_PDOS.txt" ...  done
 
 => Computing Occupancy-weighted Gaussian smeared pDOS <= 
Writing "3.3271687999999995_GO_manual_4x64graphite_occ_PDOS.txt" ...  done
  => Band centres: 
 S band centre of group 1:  -13.833520 eV
 P band centre of group 1:   -6.722242 eV
  Band centres done. <=
  => Integrated number of electrons in each AM band: 
 S num electrons of group 1:  574.301646
 P num electrons of group 1: 1963.785023
  Integrated number of electrons done. <=
================================================================================

------------------------------ TIMING INFORMATION ------------------------------
AVERAGE TIME:    4082.540s on     40 node(s)                                    
TOTAL TIME:      4082.540s on     40 node(s)                                    
================= AVERAGE TIMINGS FROM ALL NODES (CUMULATIVE) ==================
|| TAG                                    #calls    cpu time   %total  Gflops ||
|| work_imbalance                       :     1        0.00s   0.000%  ------ ||
|| paw_tcore_hartree_on_grid            :     1        0.01s   0.000%  ------ ||
|| paw_tcore_density                    :     1        0.01s   0.000%  ------ ||
|| paw_sphere_density_on_grid           :     1        0.01s   0.000%  ------ ||
|| sparse_set_to_garbage                :   171        0.03s   0.001%  ------ ||
|| paw_dij_hartree                      :   369        0.05s   0.001%  ------ ||
|| pseudo_make_structure_factor         :     1        0.05s   0.001%  ------ ||
|| basis_extract_function_from_box      :  1920        0.08s   0.002%  ------ ||
|| paw_species_calc_proj_prec_mat       :     1        0.12s   0.003%  ------ ||
|| density_init_guess_real              :     1        0.22s   0.005%  ------ ||
|| paw_dataset_init                     :     1        0.24s   0.006%  ------ ||
|| ngwfs_initialise_from_radial         :     2        0.67s   0.016%  ------ ||
|| restart_kernel_write                 :    16        0.79s   0.019%  ------ ||
|| sparse_init                          :     1        0.96s   0.024%  ------ ||
|| dense_normal_eigensolve              :     1        1.00s   0.024%  ------ ||
|| hartree_on_grid                      :   277        1.60s   0.039%  ------ ||
|| ewald_calculate_energy               :     1        2.53s   0.062%  ------ ||
|| projectors_init_fftbox_recip         :   151        2.94s   0.072%  ------ ||
|| fourier_apply_box_pair               :  2848        4.71s   0.115% 561.263 ||
|| basis_copy_function_to_box           : 26112        5.61s   0.137%  ------ ||
|| augmentation_screen_dij              :   282        6.45s   0.158%  ------ ||
|| sw_init                              :     1        6.73s   0.165%  ------ ||
|| sparse_embed_hotelling_invert_embed  :    29        8.75s   0.214%  ------ ||
|| ngwf_gradient_coeffs                 :    15       12.09s   0.296%  ------ ||
|| cell_grid_extract_box_real           : 10988       15.70s   0.385%  ------ ||
|| fourier_apply_cell_backward          :  8558       16.96s   0.416%  58.714 ||
|| sparse_trace                         :  3350       18.92s   0.464%  ------ ||
|| fourier_apply_cell_forward           :  8005       19.73s   0.483%  47.230 ||
|| cell_grid_deposit_box_real           : 35632       21.33s   0.522%  ------ ||
|| paw_dij_xc                           :   369       26.28s   0.644%  ------ ||
|| aug_nonlocal_mat                     :   354       39.24s   0.961%  ------ ||
|| density_fftbox_deposit_to_cell       : 17728       41.57s   1.018%  ------ ||
|| hamiltonian_energy_components        :     3       49.57s   1.214%  ------ ||
|| eigenstates_pdos                     :     1       53.75s   1.317%  ------ ||
|| augmentation_density_on_grid         :   277       54.41s   1.333%  ------ ||
|| eigenstates_calculate                :     1       58.01s   1.421%  ------ ||
|| function_ops_brappd_ketppd           :    60       62.82s   1.539%  ------ ||
|| projectors_func_ovlp_box             :    30       72.54s   1.777%  ------ ||
|| xc_energy_potential                  :   276       82.35s   2.017%  ------ ||
|| nlxc_vdw_energy                      :   552       83.45s   2.044%  ------ ||
|| properties_calculate                 :     1      104.50s   2.560%  ------ ||
|| integrals_kinetic                    :    29      104.57s   2.561%  ------ ||
|| restart_ngwfs_tightbox_output        :    14      107.60s   2.636%  ------ ||
|| dense_eigensolve                     :   244      114.85s   2.813%  ------ ||
|| potential_apply_to_ngwf_batch        :   344      131.84s   3.229%  ------ ||
|| sparse_product                       :  3356      152.60s   3.738%  ------ ||
|| basis_dot_function_with_box          : 8.598M     234.61s   5.747%  ------ ||
|| fourier_apply_box                    : 82128      255.54s   6.259% 978.524 ||
|| edft_diag_ngwf_ham                   :   243      263.49s   6.454%  ------ ||
|| projectors_gradient_batch            :    60      281.36s   6.892%  ------ ||
|| integrals_locpot_mat_els_batch       :   344      316.37s   7.749%  ------ ||
|| density_fftbox_interpolate_multiply  : 17728      343.24s   8.408%  ------ ||
|| projectors_grad_precond_batch        :    60      413.68s  10.133%  ------ ||
|| density_batch_interp_deposit         :  1108      424.52s  10.398%  ------ ||
|| integrals_locpot_dbl_grid            :    86      449.94s  11.021%  ------ ||
|| edft_apply_smearing_operator         :   243      519.69s  12.730%  ------ ||
|| basis_add_function_to_box            : 24.50M     641.09s  15.703%  ------ ||
|| ngwf_gradient_build_batch            :    60      740.26s  18.132%  ------ ||
|| density_batch_row_sums               :  1108      908.40s  22.251%  ------ ||
|| ngwf_gradient_batch                  :    60      978.42s  23.966%  ------ ||
|| ngwf_gradient_lnv                    :    15     1010.98s  24.764%  ------ ||
|| density_on_dbl_grid                  :   277     1348.41s  33.029%  ------ ||
|| hamiltonian_lhxc_calculate           :   272     1469.40s  35.992%  ------ ||
|| edft_calculate                       :    15     2435.64s  59.660%  ------ ||
|| ngwf_cg_optimise                     :     1     3956.82s  96.921%  ------ ||
|| total_time                           :     1     4082.54s 100.000%  ------ ||
================================================================================
Overhead of generating timer report: 
- 0 ms averaging over threads,
- 6 ms ensuring consistency across MPI ranks,
- 0 ms printing in order.

Job completed: 24-02-2020 13:54 (-0000)

