 +---------------------------------------------------------------+
 |                                                               |
 |        ####### #     # ####### ####### ####### ######         |
 |        #     # ##    # #          #    #       #     #        |
 |        #     # # #   # #          #    #       #     #        |
 |        #     # #  #  # #####      #    #####   ######         |
 |        #     # #   # # #          #    #       #              |
 |        #     # #    ## #          #    #       #              |
 |        ####### #     # #######    #    ####### #              |
 |                                                               |
 |        Linear-Scaling Ab Initio Total Energy Program          |
 |                                                               |
 |          Release for academic collaborators of ODG            |
 |                                             Version 5.3.2.12  |
 |                                                               |
 +---------------------------------------------------------------+
 |                                                               |
 |  Authors:                                                     |
 |  Jacek Dziedzic, Peter D. Haynes, Nicholas D. M. Hine,        |
 |  Arash. A. Mostofi, Mike C. Payne and Chris-Kriton Skylaris   |
 |                                                               |
 |  Contributors:                                                |
 |  J. Aarons, L. Andrinopoulos, P. W. Avraam, R. A. Bell,       |
 |  A. Bhandari, G. A. Bramley, R. J. Charlton, S. J. Clark,     |
 |  R. J. Clements, G. C. Constantinescu, F. Corsetti,           |
 |  N. Corsini, O. Dieguez, S. M. M. Dubois, K. K. B. Duff,      |
 |  J. M. Escartin, A. Greco, H. Helal, Q. O. Hill, L. P. Lee,   |
 |  J.-H. Li, E. B. Linscott, G. Moynihan, D. D. O`Regan,        |
 |  O. K. Okan, M. J. S. Phipps, C. J. Pickard,                  |
 |  J. C. A. Prentice, M. I. J. Probert, L. E. Ratcliff,         |
 |  M. Robinson, A. Ruiz Serrano, J. S. Spencer, E. W. Tait,     |
 |  G. Teobaldi, D. Turban, V. Vitale, K. A. Wilkinson,          |
 |  C. Weber, J. C. Womack, N. Yeung and T. J. Zuehlsdorff       |
 |                                                               |
 |                                   Copyright (c) 2004-2020     |
 |                                                               |
 |  Please cite:                                                 |
 |  "Introducing ONETEP: Linear-scaling density functional       |
 |   simulations on parallel computers".                         |
 |   C.-K. Skylaris, P. D. Haynes, A. A. Mostofi, M. C. Payne.   |
 |   J. Chem. Phys. 122 084119 (2005).                           |
 |                                                               |
 |          in all publications arising from your use of ONETEP. |
 |                                                               |
 +---------------------------------------------------------------+
 |                                                               |
 |   ONETEP is based on developments described in the following  |
 |   publications:                                               |
 |                                                               |
 |  "Nonorthogonal generalized Wannier function pseudopotential  |
 |   plane-wave method".                                         |
 |   C.-K. Skylaris, A. A. Mostofi, P. D. Haynes, O. Dieguez,    |
 |   M. C. Payne.                                                |
 |   Phys. Rev. B 66 035119 (2002).                              |
 |                                                               |
 |  "Preconditioned iterative minimization for linear-scaling    |
 |   electronic structure calculations".                         |
 |   A. A. Mostofi, P. D. Haynes, C.-K. Skylaris, M. C. Payne.   |
 |   J. Chem. Phys. 119(17), pp.8842-8848 (2003).                |
 |                                                               |
 |  "Total-energy calculations on a real space grid with         |
 |   localized functions and a plane-wave basis".                |
 |   A. A. Mostofi, C.-K. Skylaris, P. D. Haynes, M. C. Payne.   |
 |   Comput. Phys. Commun. 147, pp.788-802 (2002).               |
 |                                                               |
 |  "Accurate kinetic energy evaluation in electronic structure  |
 |   calculations with localized functions on real space grids"  |
 |   C.-K. Skylaris, A. A. Mostofi, P. D. Haynes, C. J. Pickard, |
 |   M. C. Payne.                                                |
 |   Comput. Phys. Commun. 140, pp.315-322 (2001).               |
 |                                                               |
 |  "Accurate ionic forces and geometry optimization in linear-  |
 |   scaling density-functional theory with local orbitals"      |
 |   N. D. M. Hine, M. Robinson, P. D. Haynes, C.-K. Skylaris,   |
 |   M. C. Payne, and A. A. Mostofi.                             |
 |   Phys. Rev. B 83 195102 (2011).                              |
 |                                                               |
 +---------------------------------------------------------------+

Job started: 21-02-2020 13:49 (-0000)
 
Reading parameters from file "3.3808312_GO_manual_4x64graphite.dat" ...

WARNING: "cutoff_energy" not specified, but "psinc_spacing" specified.
         Using the latter to set the KE cutoff energy to  732.32021eV,
         thus *overriding* the default.

... done

If your calculation crashes here, before "Checking processes and threads..."
is displayed, then your stack size is insufficient.
If so, use "ulimit -s unlimited" at runtime.
You can disable this check with "check_stack_size F".

Checking processes and threads...
   Determining the default number of threads...
      No default threads set at compilation time: defaulting to 1.
      OpenMP library call suggests 4 threads.
      Hybrid MPI-OpenMP compilation detected.
      Number of MPI processes > 1.
      OMP_NUM_THREADS environment variable present and
      its value matches the one obtained from the OpenMP library call.
      Using this value as default.
      Default threads: 4
      Default applies to threads_max and threads_num_fftboxes.
      Settings in the input file override this default.
   ... done

   Running with 40 MPI processes.
   There are 10 MPI processes running on the same node as the root process.
   Each MPI process is using: 
               1 threads for simulation cell FFTs.
               1 threads for parallel FFT box operations.
               4 threads for loops over batched FFT box operations.
               4 threads in other parallel regions.
... done

Basic input checks...
Resetting ngwf_cg_rotate to TRUE for EDFT calculations
... done

Reading geometry and species blocks from file "3.3808312_GO_manual_4x64graphite.dat" ...
    
  PSINC grid spacing along a1 set to   0.511215680000a0 from input file.
  PSINC grid spacing along a2 set to   0.531284090000a0 from input file.
  PSINC grid spacing along a3 set to   0.507052230000a0 from input file.
  Number of PPD points along a3 set to 1.  This is 
  the default value, it may have been provided also in the input file.
... done
 Writing xyz coordinates to file "3.3808312_GO_manual_4x64graphite.xyz" ... done


--------------------------------------------------------------------------------
---------------------------------- INPUT FILE ----------------------------------
--------------------------------------------------------------------------------

task : singlepoint                                                              
do_properties : true                                                            
dx_format T                                                                     
edft T                                                                          
output_detail VERBOSE                                                           
write_xyz T                                                                     
xc_functional VV10                                                              
PSINC_SPACING 0.51121568 0.53128409 0.50705223                                  
paw T                                                                           
pdos_max_l = 2                                                                  
dos_smear  0.1 eV                                                               
popn_calculate T                                                                
PDOS_PSEUDOATOMIC T                                                             
PDOS_REDUCE_SWS F                                                               
PDOS_CONSTRUCT_BASIS F                                                          
PDOS_LOWDIN T                                                                   
PDOS_ORTH_ATOM_BLOCKS F                                                         
PDOS_LCAO_OPTIMIZE F                                                            
pdos_optados_output T                                                           
homo_plot 0                                                                     
lumo_plot 0                                                                     
homo_dens_plot -1                                                               
lumo_dens_plot -1                                                               
%BLOCK SPECIES                                                                  
C C 6 4 9.0                                                                     
%ENDBLOCK SPECIES                                                               
%BLOCK SPECIES_POT                                                              
C "~/pp/paw/c_pbe_abinit.paw"                                                   
%ENDBLOCK SPECIES_POT                                                           
%BLOCK SPECIES_ATOMIC_SET                                                       
C "SOLVE conf=2s2 2p2"                                                          
%ENDBLOCK SPECIES_ATOMIC_SET                                                    
%BLOCK LATTICE_CART                                                             
32.21  0.00  0.00                                                               
0.00 18.59  0.00                                                                
0.00  0.00 63.89                                                                
%ENDBLOCK LATTICE_CART                                                          
%BLOCK POSITIONS_ABS                                                            
C  0.00  0.00  3.19                                                             
C  0.00  0.00 15.97                                                             
C  0.00  0.00 28.75                                                             
C  0.00  0.00 41.53                                                             
C  0.00  0.00 54.31                                                             
C  0.00  4.65  3.19                                                             
C  0.00  4.65 15.97                                                             
C  0.00  4.65 28.75                                                             
C  0.00  4.65 41.53                                                             
C  0.00  4.65 54.31                                                             
C  4.03  2.32  3.19                                                             
C  4.03  2.32 15.97                                                             
C  4.03  2.32 28.75                                                             
C  4.03  2.32 41.53                                                             
C  4.03  2.32 54.31                                                             
C  8.05  0.00  3.19                                                             
C  8.05  0.00 15.97                                                             
C  8.05  0.00 28.75                                                             
C  8.05  0.00 41.53                                                             
C  8.05  0.00 54.31                                                             
C  0.00  9.30  3.19                                                             
C  0.00  9.30 15.97                                                             
C  0.00  9.30 28.75                                                             
C  0.00  9.30 41.53                                                             
C  0.00  9.30 54.31                                                             
C  4.03  6.97  3.19                                                             
C  4.03  6.97 15.97                                                             
C  4.03  6.97 28.75                                                             
C  4.03  6.97 41.53                                                             
C  4.03  6.97 54.31                                                             
C  8.05  4.65  3.19                                                             
C  8.05  4.65 15.97                                                             
C  8.05  4.65 28.75                                                             
C  8.05  4.65 41.53                                                             
C  8.05  4.65 54.31                                                             
C 12.08  2.32  3.19                                                             
C 12.08  2.32 15.97                                                             
C 12.08  2.32 28.75                                                             
C 12.08  2.32 41.53                                                             
C 12.08  2.32 54.31                                                             
C 16.10  0.00  3.19                                                             
C 16.10  0.00 15.97                                                             
C 16.10  0.00 28.75                                                             
C 16.10  0.00 41.53                                                             
C 16.10  0.00 54.31                                                             
C  0.00 13.95  3.19                                                             
C  0.00 13.95 15.97                                                             
C  0.00 13.95 28.75                                                             
C  0.00 13.95 41.53                                                             
C  0.00 13.95 54.31                                                             
C  4.03 11.62  3.19                                                             
C  4.03 11.62 15.97                                                             
C  4.03 11.62 28.75                                                             
C  4.03 11.62 41.53                                                             
C  4.03 11.62 54.31                                                             
C  8.05  9.30  3.19                                                             
C  8.05  9.30 15.97                                                             
C  8.05  9.30 28.75                                                             
C  8.05  9.30 41.53                                                             
C  8.05  9.30 54.31                                                             
C 12.08  6.97  3.19                                                             
C 12.08  6.97 15.97                                                             
C 12.08  6.97 28.75                                                             
C 12.08  6.97 41.53                                                             
C 12.08  6.97 54.31                                                             
C 16.10  4.65  3.19                                                             
C 16.10  4.65 15.97                                                             
C 16.10  4.65 28.75                                                             
C 16.10  4.65 41.53                                                             
C 16.10  4.65 54.31                                                             
C 20.13  2.32  3.19                                                             
C 20.13  2.32 15.97                                                             
C 20.13  2.32 28.75                                                             
C 20.13  2.32 41.53                                                             
C 20.13  2.32 54.31                                                             
C 24.16  0.00  3.19                                                             
C 24.16  0.00 15.97                                                             
C 24.16  0.00 28.75                                                             
C 24.16  0.00 41.53                                                             
C 24.16  0.00 54.31                                                             
C  4.03 16.27  3.19                                                             
C  4.03 16.27 15.97                                                             
C  4.03 16.27 28.75                                                             
C  4.03 16.27 41.53                                                             
C  4.03 16.27 54.31                                                             
C  8.05 13.95  3.19                                                             
C  8.05 13.95 15.97                                                             
C  8.05 13.95 28.75                                                             
C  8.05 13.95 41.53                                                             
C  8.05 13.95 54.31                                                             
C 12.08 11.62  3.19                                                             
C 12.08 11.62 15.97                                                             
C 12.08 11.62 28.75                                                             
C 12.08 11.62 41.53                                                             
C 12.08 11.62 54.31                                                             
C 16.10  9.30  3.19                                                             
C 16.10  9.30 15.97                                                             
C 16.10  9.30 28.75                                                             
C 16.10  9.30 41.53                                                             
C 16.10  9.30 54.31                                                             
C 20.13  6.97  3.19                                                             
C 20.13  6.97 15.97                                                             
C 20.13  6.97 28.75                                                             
C 20.13  6.97 41.53                                                             
C 20.13  6.97 54.31                                                             
C 24.16  4.65  3.19                                                             
C 24.16  4.65 15.97                                                             
C 24.16  4.65 28.75                                                             
C 24.16  4.65 41.53                                                             
C 24.16  4.65 54.31                                                             
C 28.18  2.32  3.19                                                             
C 28.18  2.32 15.97                                                             
C 28.18  2.32 28.75                                                             
C 28.18  2.32 41.53                                                             
C 28.18  2.32 54.31                                                             
C 12.08 16.27  3.19                                                             
C 12.08 16.27 15.97                                                             
C 12.08 16.27 28.75                                                             
C 12.08 16.27 41.53                                                             
C 12.08 16.27 54.31                                                             
C 16.10 13.95  3.19                                                             
C 16.10 13.95 15.97                                                             
C 16.10 13.95 28.75                                                             
C 16.10 13.95 41.53                                                             
C 16.10 13.95 54.31                                                             
C 20.13 11.62  3.19                                                             
C 20.13 11.62 15.97                                                             
C 20.13 11.62 28.75                                                             
C 20.13 11.62 41.53                                                             
C 20.13 11.62 54.31                                                             
C 24.16  9.30  3.19                                                             
C 24.16  9.30 15.97                                                             
C 24.16  9.30 28.75                                                             
C 24.16  9.30 41.53                                                             
C 24.16  9.30 54.31                                                             
C 28.18  6.97  3.19                                                             
C 28.18  6.97 15.97                                                             
C 28.18  6.97 28.75                                                             
C 28.18  6.97 41.53                                                             
C 28.18  6.97 54.31                                                             
C 20.13 16.27  3.19                                                             
C 20.13 16.27 15.97                                                             
C 20.13 16.27 28.75                                                             
C 20.13 16.27 41.53                                                             
C 20.13 16.27 54.31                                                             
C 24.16 13.95  3.19                                                             
C 24.16 13.95 15.97                                                             
C 24.16 13.95 28.75                                                             
C 24.16 13.95 41.53                                                             
C 24.16 13.95 54.31                                                             
C 28.18 11.62  3.19                                                             
C 28.18 11.62 15.97                                                             
C 28.18 11.62 28.75                                                             
C 28.18 11.62 41.53                                                             
C 28.18 11.62 54.31                                                             
C 28.18 16.27  3.19                                                             
C 28.18 16.27 15.97                                                             
C 28.18 16.27 28.75                                                             
C 28.18 16.27 41.53                                                             
C 28.18 16.27 54.31                                                             
C  0.00  0.00  9.58                                                             
C  0.00  0.00 22.36                                                             
C  0.00  0.00 35.14                                                             
C  0.00  0.00 47.92                                                             
C  0.00  0.00 60.69                                                             
C  0.00  4.65  9.58                                                             
C  0.00  4.65 22.36                                                             
C  0.00  4.65 35.14                                                             
C  0.00  4.65 47.92                                                             
C  0.00  4.65 60.69                                                             
C  4.03  2.32  9.58                                                             
C  4.03  2.32 22.36                                                             
C  4.03  2.32 35.14                                                             
C  4.03  2.32 47.92                                                             
C  4.03  2.32 60.69                                                             
C  8.05  0.00  9.58                                                             
C  8.05  0.00 22.36                                                             
C  8.05  0.00 35.14                                                             
C  8.05  0.00 47.92                                                             
C  8.05  0.00 60.69                                                             
C  0.00  9.30  9.58                                                             
C  0.00  9.30 22.36                                                             
C  0.00  9.30 35.14                                                             
C  0.00  9.30 47.92                                                             
C  0.00  9.30 60.69                                                             
C  4.03  6.97  9.58                                                             
C  4.03  6.97 22.36                                                             
C  4.03  6.97 35.14                                                             
C  4.03  6.97 47.92                                                             
C  4.03  6.97 60.69                                                             
C  8.05  4.65  9.58                                                             
C  8.05  4.65 22.36                                                             
C  8.05  4.65 35.14                                                             
C  8.05  4.65 47.92                                                             
C  8.05  4.65 60.69                                                             
C 12.08  2.32  9.58                                                             
C 12.08  2.32 22.36                                                             
C 12.08  2.32 35.14                                                             
C 12.08  2.32 47.92                                                             
C 12.08  2.32 60.69                                                             
C 16.10  0.00  9.58                                                             
C 16.10  0.00 22.36                                                             
C 16.10  0.00 35.14                                                             
C 16.10  0.00 47.92                                                             
C 16.10  0.00 60.69                                                             
C  0.00 13.95  9.58                                                             
C  0.00 13.95 22.36                                                             
C  0.00 13.95 35.14                                                             
C  0.00 13.95 47.92                                                             
C  0.00 13.95 60.69                                                             
C  4.03 11.62  9.58                                                             
C  4.03 11.62 22.36                                                             
C  4.03 11.62 35.14                                                             
C  4.03 11.62 47.92                                                             
C  4.03 11.62 60.69                                                             
C  8.05  9.30  9.58                                                             
C  8.05  9.30 22.36                                                             
C  8.05  9.30 35.14                                                             
C  8.05  9.30 47.92                                                             
C  8.05  9.30 60.69                                                             
C 12.08  6.97  9.58                                                             
C 12.08  6.97 22.36                                                             
C 12.08  6.97 35.14                                                             
C 12.08  6.97 47.92                                                             
C 12.08  6.97 60.69                                                             
C 16.10  4.65  9.58                                                             
C 16.10  4.65 22.36                                                             
C 16.10  4.65 35.14                                                             
C 16.10  4.65 47.92                                                             
C 16.10  4.65 60.69                                                             
C 20.13  2.32  9.58                                                             
C 20.13  2.32 22.36                                                             
C 20.13  2.32 35.14                                                             
C 20.13  2.32 47.92                                                             
C 20.13  2.32 60.69                                                             
C 24.16  0.00  9.58                                                             
C 24.16  0.00 22.36                                                             
C 24.16  0.00 35.14                                                             
C 24.16  0.00 47.92                                                             
C 24.16  0.00 60.69                                                             
C  4.03 16.27  9.58                                                             
C  4.03 16.27 22.36                                                             
C  4.03 16.27 35.14                                                             
C  4.03 16.27 47.92                                                             
C  4.03 16.27 60.69                                                             
C  8.05 13.95  9.58                                                             
C  8.05 13.95 22.36                                                             
C  8.05 13.95 35.14                                                             
C  8.05 13.95 47.92                                                             
C  8.05 13.95 60.69                                                             
C 12.08 11.62  9.58                                                             
C 12.08 11.62 22.36                                                             
C 12.08 11.62 35.14                                                             
C 12.08 11.62 47.92                                                             
C 12.08 11.62 60.69                                                             
C 16.10  9.30  9.58                                                             
C 16.10  9.30 22.36                                                             
C 16.10  9.30 35.14                                                             
C 16.10  9.30 47.92                                                             
C 16.10  9.30 60.69                                                             
C 20.13  6.97  9.58                                                             
C 20.13  6.97 22.36                                                             
C 20.13  6.97 35.14                                                             
C 20.13  6.97 47.92                                                             
C 20.13  6.97 60.69                                                             
C 24.16  4.65  9.58                                                             
C 24.16  4.65 22.36                                                             
C 24.16  4.65 35.14                                                             
C 24.16  4.65 47.92                                                             
C 24.16  4.65 60.69                                                             
C 28.18  2.32  9.58                                                             
C 28.18  2.32 22.36                                                             
C 28.18  2.32 35.14                                                             
C 28.18  2.32 47.92                                                             
C 28.18  2.32 60.69                                                             
C 12.08 16.27  9.58                                                             
C 12.08 16.27 22.36                                                             
C 12.08 16.27 35.14                                                             
C 12.08 16.27 47.92                                                             
C 12.08 16.27 60.69                                                             
C 16.10 13.95  9.58                                                             
C 16.10 13.95 22.36                                                             
C 16.10 13.95 35.14                                                             
C 16.10 13.95 47.92                                                             
C 16.10 13.95 60.69                                                             
C 20.13 11.62  9.58                                                             
C 20.13 11.62 22.36                                                             
C 20.13 11.62 35.14                                                             
C 20.13 11.62 47.92                                                             
C 20.13 11.62 60.69                                                             
C 24.16  9.30  9.58                                                             
C 24.16  9.30 22.36                                                             
C 24.16  9.30 35.14                                                             
C 24.16  9.30 47.92                                                             
C 24.16  9.30 60.69                                                             
C 28.18  6.97  9.58                                                             
C 28.18  6.97 22.36                                                             
C 28.18  6.97 35.14                                                             
C 28.18  6.97 47.92                                                             
C 28.18  6.97 60.69                                                             
C 20.13 16.27  9.58                                                             
C 20.13 16.27 22.36                                                             
C 20.13 16.27 35.14                                                             
C 20.13 16.27 47.92                                                             
C 20.13 16.27 60.69                                                             
C 24.16 13.95  9.58                                                             
C 24.16 13.95 22.36                                                             
C 24.16 13.95 35.14                                                             
C 24.16 13.95 47.92                                                             
C 24.16 13.95 60.69                                                             
C 28.18 11.62  9.58                                                             
C 28.18 11.62 22.36                                                             
C 28.18 11.62 35.14                                                             
C 28.18 11.62 47.92                                                             
C 28.18 11.62 60.69                                                             
C 28.18 16.27  9.58                                                             
C 28.18 16.27 22.36                                                             
C 28.18 16.27 35.14                                                             
C 28.18 16.27 47.92                                                             
C 28.18 16.27 60.69                                                             
C  1.34  2.32  3.19                                                             
C  1.34  2.32 15.97                                                             
C  1.34  2.32 28.75                                                             
C  1.34  2.32 41.53                                                             
C  1.34  2.32 54.31                                                             
C  5.37  0.00  3.19                                                             
C  5.37  0.00 15.97                                                             
C  5.37  0.00 28.75                                                             
C  5.37  0.00 41.53                                                             
C  5.37  0.00 54.31                                                             
C  1.34  6.97  3.19                                                             
C  1.34  6.97 15.97                                                             
C  1.34  6.97 28.75                                                             
C  1.34  6.97 41.53                                                             
C  1.34  6.97 54.31                                                             
C  5.37  4.65  3.19                                                             
C  5.37  4.65 15.97                                                             
C  5.37  4.65 28.75                                                             
C  5.37  4.65 41.53                                                             
C  5.37  4.65 54.31                                                             
C  9.39  2.32  3.19                                                             
C  9.39  2.32 15.97                                                             
C  9.39  2.32 28.75                                                             
C  9.39  2.32 41.53                                                             
C  9.39  2.32 54.31                                                             
C 13.42  0.00  3.19                                                             
C 13.42  0.00 15.97                                                             
C 13.42  0.00 28.75                                                             
C 13.42  0.00 41.53                                                             
C 13.42  0.00 54.31                                                             
C  1.34 11.62  3.19                                                             
C  1.34 11.62 15.97                                                             
C  1.34 11.62 28.75                                                             
C  1.34 11.62 41.53                                                             
C  1.34 11.62 54.31                                                             
C  5.37  9.30  3.19                                                             
C  5.37  9.30 15.97                                                             
C  5.37  9.30 28.75                                                             
C  5.37  9.30 41.53                                                             
C  5.37  9.30 54.31                                                             
C  9.39  6.97  3.19                                                             
C  9.39  6.97 15.97                                                             
C  9.39  6.97 28.75                                                             
C  9.39  6.97 41.53                                                             
C  9.39  6.97 54.31                                                             
C 13.42  4.65  3.19                                                             
C 13.42  4.65 15.97                                                             
C 13.42  4.65 28.75                                                             
C 13.42  4.65 41.53                                                             
C 13.42  4.65 54.31                                                             
C 17.45  2.32  3.19                                                             
C 17.45  2.32 15.97                                                             
C 17.45  2.32 28.75                                                             
C 17.45  2.32 41.53                                                             
C 17.45  2.32 54.31                                                             
C 21.47  0.00  3.19                                                             
C 21.47  0.00 15.97                                                             
C 21.47  0.00 28.75                                                             
C 21.47  0.00 41.53                                                             
C 21.47  0.00 54.31                                                             
C  1.34 16.27  3.19                                                             
C  1.34 16.27 15.97                                                             
C  1.34 16.27 28.75                                                             
C  1.34 16.27 41.53                                                             
C  1.34 16.27 54.31                                                             
C  5.37 13.95  3.19                                                             
C  5.37 13.95 15.97                                                             
C  5.37 13.95 28.75                                                             
C  5.37 13.95 41.53                                                             
C  5.37 13.95 54.31                                                             
C  9.39 11.62  3.19                                                             
C  9.39 11.62 15.97                                                             
C  9.39 11.62 28.75                                                             
C  9.39 11.62 41.53                                                             
C  9.39 11.62 54.31                                                             
C 13.42  9.30  3.19                                                             
C 13.42  9.30 15.97                                                             
C 13.42  9.30 28.75                                                             
C 13.42  9.30 41.53                                                             
C 13.42  9.30 54.31                                                             
C 17.45  6.97  3.19                                                             
C 17.45  6.97 15.97                                                             
C 17.45  6.97 28.75                                                             
C 17.45  6.97 41.53                                                             
C 17.45  6.97 54.31                                                             
C 21.47  4.65  3.19                                                             
C 21.47  4.65 15.97                                                             
C 21.47  4.65 28.75                                                             
C 21.47  4.65 41.53                                                             
C 21.47  4.65 54.31                                                             
C 25.50  2.32  3.19                                                             
C 25.50  2.32 15.97                                                             
C 25.50  2.32 28.75                                                             
C 25.50  2.32 41.53                                                             
C 25.50  2.32 54.31                                                             
C 29.52  0.00  3.19                                                             
C 29.52  0.00 15.97                                                             
C 29.52  0.00 28.75                                                             
C 29.52  0.00 41.53                                                             
C 29.52  0.00 54.31                                                             
C  9.39 16.27  3.19                                                             
C  9.39 16.27 15.97                                                             
C  9.39 16.27 28.75                                                             
C  9.39 16.27 41.53                                                             
C  9.39 16.27 54.31                                                             
C 13.42 13.95  3.19                                                             
C 13.42 13.95 15.97                                                             
C 13.42 13.95 28.75                                                             
C 13.42 13.95 41.53                                                             
C 13.42 13.95 54.31                                                             
C 17.45 11.62  3.19                                                             
C 17.45 11.62 15.97                                                             
C 17.45 11.62 28.75                                                             
C 17.45 11.62 41.53                                                             
C 17.45 11.62 54.31                                                             
C 21.47  9.30  3.19                                                             
C 21.47  9.30 15.97                                                             
C 21.47  9.30 28.75                                                             
C 21.47  9.30 41.53                                                             
C 21.47  9.30 54.31                                                             
C 25.50  6.97  3.19                                                             
C 25.50  6.97 15.97                                                             
C 25.50  6.97 28.75                                                             
C 25.50  6.97 41.53                                                             
C 25.50  6.97 54.31                                                             
C 29.52  4.65  3.19                                                             
C 29.52  4.65 15.97                                                             
C 29.52  4.65 28.75                                                             
C 29.52  4.65 41.53                                                             
C 29.52  4.65 54.31                                                             
C 17.45 16.27  3.19                                                             
C 17.45 16.27 15.97                                                             
C 17.45 16.27 28.75                                                             
C 17.45 16.27 41.53                                                             
C 17.45 16.27 54.31                                                             
C 21.47 13.95  3.19                                                             
C 21.47 13.95 15.97                                                             
C 21.47 13.95 28.75                                                             
C 21.47 13.95 41.53                                                             
C 21.47 13.95 54.31                                                             
C 25.50 11.62  3.19                                                             
C 25.50 11.62 15.97                                                             
C 25.50 11.62 28.75                                                             
C 25.50 11.62 41.53                                                             
C 25.50 11.62 54.31                                                             
C 29.52  9.30  3.19                                                             
C 29.52  9.30 15.97                                                             
C 29.52  9.30 28.75                                                             
C 29.52  9.30 41.53                                                             
C 29.52  9.30 54.31                                                             
C 25.50 16.27  3.19                                                             
C 25.50 16.27 15.97                                                             
C 25.50 16.27 28.75                                                             
C 25.50 16.27 41.53                                                             
C 25.50 16.27 54.31                                                             
C 29.52 13.95  3.19                                                             
C 29.52 13.95 15.97                                                             
C 29.52 13.95 28.75                                                             
C 29.52 13.95 41.53                                                             
C 29.52 13.95 54.31                                                             
C  2.68  0.00  9.58                                                             
C  2.68  0.00 22.36                                                             
C  2.68  0.00 35.14                                                             
C  2.68  0.00 47.92                                                             
C  2.68  0.00 60.69                                                             
C  2.68  4.65  9.58                                                             
C  2.68  4.65 22.36                                                             
C  2.68  4.65 35.14                                                             
C  2.68  4.65 47.92                                                             
C  2.68  4.65 60.69                                                             
C  6.71  2.32  9.58                                                             
C  6.71  2.32 22.36                                                             
C  6.71  2.32 35.14                                                             
C  6.71  2.32 47.92                                                             
C  6.71  2.32 60.69                                                             
C 10.74  0.00  9.58                                                             
C 10.74  0.00 22.36                                                             
C 10.74  0.00 35.14                                                             
C 10.74  0.00 47.92                                                             
C 10.74  0.00 60.69                                                             
C  2.68  9.30  9.58                                                             
C  2.68  9.30 22.36                                                             
C  2.68  9.30 35.14                                                             
C  2.68  9.30 47.92                                                             
C  2.68  9.30 60.69                                                             
C  6.71  6.97  9.58                                                             
C  6.71  6.97 22.36                                                             
C  6.71  6.97 35.14                                                             
C  6.71  6.97 47.92                                                             
C  6.71  6.97 60.69                                                             
C 10.74  4.65  9.58                                                             
C 10.74  4.65 22.36                                                             
C 10.74  4.65 35.14                                                             
C 10.74  4.65 47.92                                                             
C 10.74  4.65 60.69                                                             
C 14.76  2.32  9.58                                                             
C 14.76  2.32 22.36                                                             
C 14.76  2.32 35.14                                                             
C 14.76  2.32 47.92                                                             
C 14.76  2.32 60.69                                                             
C 18.79  0.00  9.58                                                             
C 18.79  0.00 22.36                                                             
C 18.79  0.00 35.14                                                             
C 18.79  0.00 47.92                                                             
C 18.79  0.00 60.69                                                             
C  2.68 13.95  9.58                                                             
C  2.68 13.95 22.36                                                             
C  2.68 13.95 35.14                                                             
C  2.68 13.95 47.92                                                             
C  2.68 13.95 60.69                                                             
C  6.71 11.62  9.58                                                             
C  6.71 11.62 22.36                                                             
C  6.71 11.62 35.14                                                             
C  6.71 11.62 47.92                                                             
C  6.71 11.62 60.69                                                             
C 10.74  9.30  9.58                                                             
C 10.74  9.30 22.36                                                             
C 10.74  9.30 35.14                                                             
C 10.74  9.30 47.92                                                             
C 10.74  9.30 60.69                                                             
C 14.76  6.97  9.58                                                             
C 14.76  6.97 22.36                                                             
C 14.76  6.97 35.14                                                             
C 14.76  6.97 47.92                                                             
C 14.76  6.97 60.69                                                             
C 18.79  4.65  9.58                                                             
C 18.79  4.65 22.36                                                             
C 18.79  4.65 35.14                                                             
C 18.79  4.65 47.92                                                             
C 18.79  4.65 60.69                                                             
C 22.81  2.32  9.58                                                             
C 22.81  2.32 22.36                                                             
C 22.81  2.32 35.14                                                             
C 22.81  2.32 47.92                                                             
C 22.81  2.32 60.69                                                             
C 26.84  0.00  9.58                                                             
C 26.84  0.00 22.36                                                             
C 26.84  0.00 35.14                                                             
C 26.84  0.00 47.92                                                             
C 26.84  0.00 60.69                                                             
C  6.71 16.27  9.58                                                             
C  6.71 16.27 22.36                                                             
C  6.71 16.27 35.14                                                             
C  6.71 16.27 47.92                                                             
C  6.71 16.27 60.69                                                             
C 10.74 13.95  9.58                                                             
C 10.74 13.95 22.36                                                             
C 10.74 13.95 35.14                                                             
C 10.74 13.95 47.92                                                             
C 10.74 13.95 60.69                                                             
C 14.76 11.62  9.58                                                             
C 14.76 11.62 22.36                                                             
C 14.76 11.62 35.14                                                             
C 14.76 11.62 47.92                                                             
C 14.76 11.62 60.69                                                             
C 18.79  9.30  9.58                                                             
C 18.79  9.30 22.36                                                             
C 18.79  9.30 35.14                                                             
C 18.79  9.30 47.92                                                             
C 18.79  9.30 60.69                                                             
C 22.81  6.97  9.58                                                             
C 22.81  6.97 22.36                                                             
C 22.81  6.97 35.14                                                             
C 22.81  6.97 47.92                                                             
C 22.81  6.97 60.69                                                             
C 26.84  4.65  9.58                                                             
C 26.84  4.65 22.36                                                             
C 26.84  4.65 35.14                                                             
C 26.84  4.65 47.92                                                             
C 26.84  4.65 60.69                                                             
C 30.86  2.32  9.58                                                             
C 30.86  2.32 22.36                                                             
C 30.86  2.32 35.14                                                             
C 30.86  2.32 47.92                                                             
C 30.86  2.32 60.69                                                             
C 14.76 16.27  9.58                                                             
C 14.76 16.27 22.36                                                             
C 14.76 16.27 35.14                                                             
C 14.76 16.27 47.92                                                             
C 14.76 16.27 60.69                                                             
C 18.79 13.95  9.58                                                             
C 18.79 13.95 22.36                                                             
C 18.79 13.95 35.14                                                             
C 18.79 13.95 47.92                                                             
C 18.79 13.95 60.69                                                             
C 22.81 11.62  9.58                                                             
C 22.81 11.62 22.36                                                             
C 22.81 11.62 35.14                                                             
C 22.81 11.62 47.92                                                             
C 22.81 11.62 60.69                                                             
C 26.84  9.30  9.58                                                             
C 26.84  9.30 22.36                                                             
C 26.84  9.30 35.14                                                             
C 26.84  9.30 47.92                                                             
C 26.84  9.30 60.69                                                             
C 30.86  6.97  9.58                                                             
C 30.86  6.97 22.36                                                             
C 30.86  6.97 35.14                                                             
C 30.86  6.97 47.92                                                             
C 30.86  6.97 60.69                                                             
C 22.81 16.27  9.58                                                             
C 22.81 16.27 22.36                                                             
C 22.81 16.27 35.14                                                             
C 22.81 16.27 47.92                                                             
C 22.81 16.27 60.69                                                             
C 26.84 13.95  9.58                                                             
C 26.84 13.95 22.36                                                             
C 26.84 13.95 35.14                                                             
C 26.84 13.95 47.92                                                             
C 26.84 13.95 60.69                                                             
C 30.86 11.62  9.58                                                             
C 30.86 11.62 22.36                                                             
C 30.86 11.62 35.14                                                             
C 30.86 11.62 47.92                                                             
C 30.86 11.62 60.69                                                             
C 30.86 16.27  9.58                                                             
C 30.86 16.27 22.36                                                             
C 30.86 16.27 35.14                                                             
C 30.86 16.27 47.92                                                             
C 30.86 16.27 60.69                                                             
%ENDBLOCK POSITIONS_ABS                                                         

--------------------------------------------------------------------------------
-------------------------------- END INPUT FILE --------------------------------
--------------------------------------------------------------------------------


 
<<<<<<<<<<<<<<<<<<<<<<<<<<<<<<<<< Full system >>>>>>>>>>>>>>>>>>>>>>>>>>>>>>>>>>
<<<<<<<<<<<<<<<<<<<<<<<<<<< PAW Dataset information >>>>>>>>>>>>>>>>>>>>>>>>>>>
File: ~/pp/paw/c_pbe_abinit.paw; rc = 1.25 bohr; shape type =  3; rshape = 1.25 bohr;
  Atomic number:  6;  ionic charge:  4.000000
    Partial Wave 1: l = 0
    Partial Wave 2: l = 0
    Partial Wave 3: l = 1
    Partial Wave 4: l = 1
  Core charge supplied for Nonlinear Core Corrections
<<<<<<<<<<<<<<<<<<<<<<<<<<<<<<<<<<<<<<< >>>>>>>>>>>>>>>>>>>>>>>>>>>>>>>>>>>>>>>

-------------------------- Atom counting information ---------------------------
Symbol    Natoms    Nngwfs    Nprojs
  C        640      2560      5120
.......   ......    ......    ......
Totals:    640      2560      5120
--------------------------------------------------------------------------------

=============================== PSINC grid sizes ===============================
                      Simulation cell:   63 x  35 x 126
                              FFT-box:   63 x  35 x 117
                                  PPD:    7 x   5 x   1
Grid space d1=  0.511269841270a0 (KE cutoff=  29.06054Eh = 790.77748eV)
Grid space d2=  0.531142857143a0 (KE cutoff=  26.92659Eh = 732.70972eV)
Grid space d3=  0.507063492063a0 (KE cutoff=  29.54468Eh = 803.95170eV)
================================================================================
  
WARNING in cell_grid_distribute:
Average of less than one 23-slab per node, so workload cannot be
equally balanced between nodes.

********************* Fourier parallelisation information **********************
       Coarse grid (whole simulation cell) dimensions:     63    35   126
          Real-space ('12') slabs/node (min max mean):      3     4     3
         Recip-space ('23') slabs/node (min max mean):      0     1     0
********************************************************************************

********************* Fourier parallelisation information **********************
       Double grid (whole simulation cell) dimensions:    126    70   252
          Real-space ('12') slabs/node (min max mean):      6     7     6
         Recip-space ('23') slabs/node (min max mean):      1     2     1
********************************************************************************

Atom SCF Calculation for C  : Z (AE atom) =   6 : Z (PS atom) =   4
Config String: 2s2 2p2
Orbitals (num,occ):  2     2.00 2.00
Orbitals   (num,l):  2        0    1
Real-space Grid (nr,dr,rmax): 1293    0.0069659443    9.0000000000
Spherical Bessel Basis (nsws,lmax,cutoff):   37    2  161.4736382572
Confining potential (l,width,scale):  0    3.0000000000  100.0000000000
Confining potential (l,width,scale):  1    3.0000000000  100.0000000000
  1         -5.4283124456   -1.2935102156    4.5135257941   -1.5923561795
  2         -5.4241534249   -1.3636937911    4.4427183619   -1.5694122055
  3         -5.4326289545   -1.3865748334    4.4195613881   -1.5634604620
  4         -5.4368073263   -1.3933479911    4.4127833993   -1.5619680687
  5         -5.4388652800   -1.3969668505    4.4091714945   -1.5612108736
  6         -5.4399077146   -1.3988848872    4.4072644158   -1.5608235486
  7         -5.4404434041   -1.3998980658    4.4062615348   -1.5606243010
  8         -5.4407208401   -1.4004325328    4.4057350952   -1.5605214507
  9         -5.4408651553   -1.4007143559    4.4054589454   -1.5604682523
 10         -5.4409404127   -1.4008629743    4.4053141024   -1.5604407028
 11         -5.4409797152   -1.4009413770    4.4052381126   -1.5604264250
 12         -5.4410002582   -1.4009827603    4.4051982277   -1.5604190215
 13         -5.4410110012   -1.4010046176    4.4051772812   -1.5604151811
 14         -5.4410166211   -1.4010161701    4.4051662735   -1.5604131883
 15         -5.4410195614   -1.4010222805    4.4051604845   -1.5604121539
 16         -5.4410211001   -1.4010255150    4.4051574379   -1.5604116169
 17         -5.4410219052   -1.4010272285    4.4051558332   -1.5604113379
 18         -5.4410223266   -1.4010281369    4.4051549874   -1.5604111930
 19         -5.4410225472   -1.4010286190    4.4051545411   -1.5604111177
 20         -5.4410226626   -1.4010288749    4.4051543055   -1.5604110786
 21         -5.4410227231   -1.4010290110    4.4051541810   -1.5604110582
Atom SCF converged after  21 iterations to a total energy of     -5.44102272

Determining parallel strategy ...
... using space-filling curve
... NGWF load balancing: max     64;  min     64;  average     64
... Projector load balancing: max    128;  min    128;  average    128
... done
Calculating Ewald energy ...
              Ewald: real-space energy =    9498.235686
        Ewald: reciprocal-space energy =       0.096780
         Ewald: (sum_charge)**2 Energy =   11284.672060
         Ewald: (sum_charge**2) Energy =     892.131659
                          Ewald Energy =   -2678.471254
Basis initialisation ...... NGWF spheres initialised
... Projector spheres initialised
... NGWF tight boxes initialised
... Projector tight boxes initialised
... Tight-boxes gathered
... NGWF basis size (local,global):     693332  27907072
... PAW projector initialisation
... done

============================= Charge Augmentation ==============================
                           Aug box size:   11 x  11 x  11
================================================================================

========================== Sparse matrix information ===========================
                        Overlap matrix filling:  44.38%
                        Density kernel filling: 100.00%
              NGWF-Proj overlap matrix filling:  12.19%
                    Aug Overlap matrix filling:  47.03%
                    Hamiltonian matrix filling:  47.03%
                  NGWF diagonal matrix filling:   0.16%
                             KS matrix filling: 100.00% 
                           KSKS matrix filling: 100.00% 
================================================================================

Sparse matrix initialisation ... done
NGWF initialisation ...... done
============ Calculation of NGWF S^-1 using Hotelling algorithm ================ 
         Iteration  |  Frobenius norm and Maximum abs value    (of I-S*S_n^-1)   
               1       0.49121293E+02     0.97680470E+00
               2       0.47933360E+02     0.95541541E+00
               3       0.46135848E+02     0.91711723E+00
               4       0.43784470E+02     0.85381264E+00
               5       0.40957452E+02     0.75950272E+00
               6       0.37649964E+02     0.68274889E+00
               7       0.34165747E+02     0.63429616E+00
               8       0.30840834E+02     0.59404115E+00
               9       0.27341331E+02     0.55157559E+00
              10       0.22956370E+02     0.48597628E+00
              11       0.17223246E+02     0.38070024E+00
              12       0.10498172E+02     0.23853061E+00
              13       0.44412300E+01     0.99355178E-01
              14       0.94825193E+00     0.19617846E-01
              15       0.51258217E-01     0.93195733E-03
              16       0.18729169E-03     0.26643753E-05
              17       0.37202983E-08     0.33024361E-10
              18       0.78318118E-13     0.41078252E-14
================================================================================
Calculating core density ...
================================= Core Density =================================
               Core den box size:   21 x  21 x  21
================================================================================
 ... done
Up spin density kernel initialisation ...... done

Writing density kernel to file "3.3808312_GO_manual_4x64graphite.dkn" ... done

>>> Optimising kernel for current NGWFs:

--------------------------- Ensemble-DFT optimisation --------------------------
Running ScaLAPACK on   40 processor(s).

--------------------------------------------------------------------------------
  Iter                              Commutator    Free_energy(A=E-TS)     DeltaA
#    0                          0.000033744770   -3651.83311186893116  -3.65E+03

Step                       =       0.381966011250
Energy                     =   -3651.833076545124
Entropy (-TS)              =      -0.000035323653
Free energy (A=E-TS)       =   -3651.833111868931
Est. 0K Energy 0.5*(E+A)   =   -3651.833094207027
Residual Non-orthogonality =       0.000000000000
Residual N_electrons       =      -0.000000000154

Spin          Integrated_Ne            Fermi_level     Delta_Fermi_level
   1      2560.000000000734         0.210012178722              2.10E-01

                           Spin 1          
     Orb      H-eigenvalues     Occupancies
       1 |    -0.5124804727    1.0000000000 | 
                          ------
    1276 |     0.1765056871    0.9999745944 | 
    1277 |     0.1771152432    0.9999692020 | 
    1278 |     0.1771276158    0.9999690815 | 
    1279 |     0.1775699652    0.9999644467 | 
    1280 |     0.1781859681    0.9999568128 | 
                 - Gap at zero temperature -
    1281 |     0.2444486257    0.0000189409 | 
    1282 |     0.2444739718    0.0000187899 | 
    1283 |     0.2445317137    0.0000184504 | 
    1284 |     0.2446741207    0.0000176391 | 
    1285 |     0.2446994614    0.0000174985 | 
                          ------
    2560 |     1.0424921871    0.0000000000 | 

                       |  Abs_value |  Threshold | Converged
     Delta_Free_energy |   3.65E+03 |   1.00E-06 |        No
     Delta_Energy      |   3.65E+03 |   1.00E-04 |        No
     Delta_Entropy     |   3.53E-05 |   1.00E-04 |       Yes
     Commutator        |   3.37E-05 |   1.00E-05 |        No
     Delta_Fermi_level |   2.10E-01 |   1.00E-03 |        No

  Line search of the free energy minimum:
  Step_type        Step             Free_energy   Predicted_free_energy
.   Initial    0.000000    -3651.83311186893116
.    Trial1    0.381966    -3651.83428927600698
.    Trial2    0.618034    -3651.83417196707023
. Quadratic    0.457099    -3651.83432175566713    -3651.83432196984768

--------------------------------------------------------------------------------
  Iter                              Commutator    Free_energy(A=E-TS)     DeltaA
#    1                          0.000018001136   -3651.83432175566713  -1.21E-03

Step                       =       0.457099369235
Energy                     =   -3651.834286888532
Entropy (-TS)              =      -0.000034867403
Free energy (A=E-TS)       =   -3651.834321755667
Est. 0K Energy 0.5*(E+A)   =   -3651.834304322099
Residual Non-orthogonality =       0.000000000000
Residual N_electrons       =       0.000000000267

Spin          Integrated_Ne            Fermi_level     Delta_Fermi_level
   1      2559.999999998735         0.210867718777              8.56E-04

                           Spin 1          
     Orb      H-eigenvalues     Occupancies
       1 |    -0.5124739540    1.0000000000 | 
                          ------
    1276 |     0.1773909245    0.9999743550 | 
    1277 |     0.1778664518    0.9999702001 | 
    1278 |     0.1778888341    0.9999699888 | 
    1279 |     0.1784608488    0.9999640477 | 
    1280 |     0.1789529980    0.9999580031 | 
                 - Gap at zero temperature -
    1281 |     0.2453153688    0.0000188740 | 
    1282 |     0.2453539182    0.0000186456 | 
    1283 |     0.2454187119    0.0000182680 | 
    1284 |     0.2455674125    0.0000174301 | 
    1285 |     0.2455860876    0.0000173276 | 
                          ------
    2560 |     1.0437156409    0.0000000000 | 

                       |  Abs_value |  Threshold | Converged
     Delta_Free_energy |   1.21E-03 |   1.00E-06 |        No
     Delta_Energy      |   1.21E-03 |   1.00E-04 |        No
     Delta_Entropy     |   4.56E-07 |   1.00E-04 |       Yes
     Commutator        |   1.80E-05 |   1.00E-05 |        No
     Delta_Fermi_level |   8.56E-04 |   1.00E-03 |       Yes

  Line search of the free energy minimum:
  Step_type        Step             Free_energy   Predicted_free_energy
.   Initial    0.000000    -3651.83432175566713
.    Trial1    0.457099    -3651.83449866815499
.    Trial2    0.664469    -3651.83409192432282
. Quadratic    0.283302    -3651.83460574859146    -3651.83460542496732

--------------------------------------------------------------------------------
  Iter                              Commutator    Free_energy(A=E-TS)     DeltaA
#    2                          0.000011488225   -3651.83460574859146  -2.84E-04

Step                       =       0.283302478042
Energy                     =   -3651.834571091579
Entropy (-TS)              =      -0.000034657196
Free energy (A=E-TS)       =   -3651.834605748591
Est. 0K Energy 0.5*(E+A)   =   -3651.834588420085
Residual Non-orthogonality =       0.000000000000
Residual N_electrons       =       0.000000000184

Spin          Integrated_Ne            Fermi_level     Delta_Fermi_level
   1      2559.999999999130         0.211136694155              2.69E-04

                           Spin 1          
     Orb      H-eigenvalues     Occupancies
       1 |    -0.5124780087    1.0000000000 | 
                          ------
    1276 |     0.1776222563    0.9999746580 | 
    1277 |     0.1781277544    0.9999702722 | 
    1278 |     0.1781509244    0.9999700539 | 
    1279 |     0.1786890524    0.9999645076 | 
    1280 |     0.1792118977    0.9999581365 | 
                 - Gap at zero temperature -
    1281 |     0.2456128675    0.0000187047 | 
    1282 |     0.2456526775    0.0000184711 | 
    1283 |     0.2457158171    0.0000181065 | 
    1284 |     0.2458698394    0.0000172469 | 
    1285 |     0.2458918243    0.0000171276 | 
                          ------
    2560 |     1.0441138296    0.0000000000 | 

                       |  Abs_value |  Threshold | Converged
     Delta_Free_energy |   2.84E-04 |   1.00E-06 |        No
     Delta_Energy      |   2.84E-04 |   1.00E-04 |        No
     Delta_Entropy     |   2.10E-07 |   1.00E-04 |       Yes
     Commutator        |   1.15E-05 |   1.00E-05 |        No
     Delta_Fermi_level |   2.69E-04 |   1.00E-03 |       Yes

  Line search of the free energy minimum:
  Step_type        Step             Free_energy   Predicted_free_energy
.   Initial    0.000000    -3651.83460574859146
.    Trial1    0.283302    -3651.83471862661781
.    Trial2    0.557057    -3651.83465442006036
. Quadratic    0.316975    -3651.83471990547741    -3651.83471991496617

--------------------------------------------------------------------------------
  Iter                              Commutator    Free_energy(A=E-TS)     DeltaA
#    3                          0.000008088228   -3651.83471990547741  -1.14E-04

Step                       =       0.316974735507
Energy                     =   -3651.834685410857
Entropy (-TS)              =      -0.000034494967
Free energy (A=E-TS)       =   -3651.834719905477
Est. 0K Energy 0.5*(E+A)   =   -3651.834702658167
Residual Non-orthogonality =       0.000000000000
Residual N_electrons       =       0.000000000346

Spin          Integrated_Ne            Fermi_level     Delta_Fermi_level
   1      2559.999999998361         0.211352814425              2.16E-04

                           Spin 1          
     Orb      H-eigenvalues     Occupancies
       1 |    -0.5124750073    1.0000000000 | 
                          ------
    1276 |     0.1778184268    0.9999748172 | 
    1277 |     0.1783305142    0.9999703974 | 
    1278 |     0.1783540389    0.9999701767 | 
    1279 |     0.1788842596    0.9999647412 | 
    1280 |     0.1794140442    0.9999583208 | 
                 - Gap at zero temperature -
    1281 |     0.2458468357    0.0000185996 | 
    1282 |     0.2458870815    0.0000183647 | 
    1283 |     0.2459499812    0.0000180036 | 
    1284 |     0.2461036657    0.0000171508 | 
    1285 |     0.2461283936    0.0000170174 | 
                          ------
    2560 |     1.0444461129    0.0000000000 | 

                       |  Abs_value |  Threshold | Converged
     Delta_Free_energy |   1.14E-04 |   1.00E-06 |        No
     Delta_Energy      |   1.14E-04 |   1.00E-04 |        No
     Delta_Entropy     |   1.62E-07 |   1.00E-04 |       Yes
     Commutator        |   8.09E-06 |   1.00E-05 |       Yes
     Delta_Fermi_level |   2.16E-04 |   1.00E-03 |       Yes

  Line search of the free energy minimum:
  Step_type        Step             Free_energy   Predicted_free_energy
.   Initial    0.000000    -3651.83471990547741
.    Trial1    0.316975    -3651.83477252163675
.    Trial2    0.577867    -3651.83470671551322
. Quadratic    0.273165    -3651.83477391647966    -3651.83477391073302

--------------------------------------------------------------------------------
  Iter                              Commutator    Free_energy(A=E-TS)     DeltaA
#    4                          0.000005625048   -3651.83477391647966  -5.40E-05

Step                       =       0.273164774236
Energy                     =   -3651.834739514207
Entropy (-TS)              =      -0.000034402244
Free energy (A=E-TS)       =   -3651.834773916480
[...]
 C   275 -- C   555       -0.10      5.37000
 C   274 -- C   554       -0.10      5.37000
 C   273 -- C   553       -0.10      5.37000
 C   272 -- C   552       -0.10      5.37000
 C   271 -- C   551       -0.10      5.37000
 C   270 -- C   550       -0.10      5.37000
 C   269 -- C   549       -0.10      5.37000
 C   268 -- C   548       -0.10      5.37000
 C   267 -- C   547       -0.10      5.37000
 C   266 -- C   546       -0.10      5.37000
 C   130 -- C   465       -0.10      5.37000
 C   129 -- C   464       -0.10      5.37000
 C   128 -- C   463       -0.10      5.37000
 C   127 -- C   462       -0.10      5.37000
 C   126 -- C   461       -0.10      5.37000
 C   240 -- C   525       -0.10      5.37000
 C   239 -- C   524       -0.10      5.37000
 C   238 -- C   523       -0.10      5.37000
 C   237 -- C   522       -0.10      5.37000
 C   236 -- C   521       -0.10      5.37000
 C    23 -- C   478       -0.09      5.37202
 C    49 -- C   469       -0.09      5.37202
 C    48 -- C   468       -0.09      5.37202
 C    47 -- C   467       -0.09      5.37202
 C    22 -- C   477       -0.09      5.37202
 C    46 -- C   466       -0.09      5.37202
 C    21 -- C   476       -0.09      5.37202
 C    25 -- C   480       -0.09      5.37202
 C    24 -- C   479       -0.09      5.37202
 C    50 -- C   470       -0.09      5.37202
 C    24 -- C   449       -0.09      5.37202
 C     6 -- C   416       -0.09      5.37202
 C    23 -- C   448       -0.09      5.37202
 C    22 -- C   447       -0.09      5.37202
 C    10 -- C   470       -0.09      5.37202
 C     5 -- C   450       -0.09      5.37202
 C    21 -- C   446       -0.09      5.37202
 C    10 -- C   420       -0.09      5.37202
 C     9 -- C   469       -0.09      5.37202
 C     9 -- C   419       -0.09      5.37202
 C     8 -- C   468       -0.09      5.37202
 C     4 -- C   449       -0.09      5.37202
 C     8 -- C   418       -0.09      5.37202
 C     2 -- C   447       -0.09      5.37202
 C     7 -- C   467       -0.09      5.37202
 C     7 -- C   417       -0.09      5.37202
 C     1 -- C   446       -0.09      5.37202
 C     6 -- C   466       -0.09      5.37202
 C    25 -- C   450       -0.09      5.37202
 C     3 -- C   448       -0.09      5.37202
 C   285 -- C   580       -0.09      5.37202
 C   284 -- C   579       -0.09      5.37202
 C   283 -- C   578       -0.09      5.37202
 C   282 -- C   577       -0.09      5.37202
 C   281 -- C   576       -0.09      5.37202
 C   260 -- C   605       -0.09      5.37202
 C   259 -- C   604       -0.09      5.37202
 C   258 -- C   603       -0.09      5.37202
 C   257 -- C   602       -0.09      5.37202
 C   256 -- C   601       -0.09      5.37202
 C   219 -- C   569       -0.09      5.37202
 C   218 -- C   568       -0.09      5.37202
 C   217 -- C   567       -0.09      5.37202
 C   216 -- C   566       -0.09      5.37202
 C   250 -- C   540       -0.09      5.37202
 C   249 -- C   539       -0.09      5.37202
 C   248 -- C   538       -0.09      5.37202
 C   247 -- C   537       -0.09      5.37202
 C   246 -- C   536       -0.09      5.37202
 C   220 -- C   570       -0.09      5.37202
 C   205 -- C   550       -0.09      5.37202
 C   204 -- C   549       -0.09      5.37202
 C   203 -- C   548       -0.09      5.37202
 C   202 -- C   547       -0.09      5.37202
 C   201 -- C   546       -0.09      5.37202
 C   260 -- C   550       -0.09      5.37202
 C   259 -- C   549       -0.09      5.37202
 C   258 -- C   548       -0.09      5.37202
 C   257 -- C   547       -0.09      5.37202
 C   256 -- C   546       -0.09      5.37202
 C   230 -- C   580       -0.09      5.37202
 C   230 -- C   525       -0.09      5.37202
 C   229 -- C   579       -0.09      5.37202
 C   229 -- C   524       -0.09      5.37202
 C   228 -- C   578       -0.09      5.37202
 C   228 -- C   523       -0.09      5.37202
 C   227 -- C   577       -0.09      5.37202
 C   227 -- C   522       -0.09      5.37202
 C   226 -- C   576       -0.09      5.37202
 C   226 -- C   521       -0.09      5.37202
 C   220 -- C   515       -0.09      5.37202
 C   219 -- C   514       -0.09      5.37202
 C   218 -- C   513       -0.09      5.37202
 C   217 -- C   512       -0.09      5.37202
 C   216 -- C   511       -0.09      5.37202
 C    11 -- C   331       -0.09      5.37202
 C   195 -- C   540       -0.09      5.37202
 C   195 -- C   500       -0.09      5.37202
 C   194 -- C   539       -0.09      5.37202
 C   194 -- C   499       -0.09      5.37202
 C   193 -- C   538       -0.09      5.37202
 C   193 -- C   498       -0.09      5.37202
 C   192 -- C   537       -0.09      5.37202
 C   192 -- C   497       -0.09      5.37202
 C   191 -- C   536       -0.09      5.37202
 C   191 -- C   496       -0.09      5.37202
 C   180 -- C   515       -0.09      5.37202
 C    40 -- C   365       -0.09      5.37202
 C   179 -- C   514       -0.09      5.37202
 C   178 -- C   513       -0.09      5.37202
 C   177 -- C   512       -0.09      5.37202
 C    39 -- C   364       -0.09      5.37202
 C   176 -- C   511       -0.09      5.37202
 C    38 -- C   363       -0.09      5.37202
 C    37 -- C   362       -0.09      5.37202
 C    36 -- C   361       -0.09      5.37202
 C   150 -- C   440       -0.09      5.37202
 C   149 -- C   439       -0.09      5.37202
 C   148 -- C   438       -0.09      5.37202
 C   147 -- C   437       -0.09      5.37202
 C   146 -- C   436       -0.09      5.37202
 C    15 -- C   335       -0.09      5.37202
 C    65 -- C   345       -0.09      5.37202
 C    64 -- C   344       -0.09      5.37202
 C   135 -- C   460       -0.09      5.37202
 C    63 -- C   343       -0.09      5.37202
 C   134 -- C   459       -0.09      5.37202
 C    30 -- C   325       -0.09      5.37202
 C   133 -- C   458       -0.09      5.37202
 C    62 -- C   342       -0.09      5.37202
 C    14 -- C   334       -0.09      5.37202
 C   132 -- C   457       -0.09      5.37202
 C   131 -- C   456       -0.09      5.37202
 C    61 -- C   341       -0.09      5.37202
 C    29 -- C   324       -0.09      5.37202
 C    28 -- C   323       -0.09      5.37202
 C    13 -- C   333       -0.09      5.37202
 C    27 -- C   322       -0.09      5.37202
 C    26 -- C   321       -0.09      5.37202
 C    12 -- C   332       -0.09      5.37202
 C    95 -- C   365       -0.09      5.37202
 C    94 -- C   364       -0.09      5.37202
 C    93 -- C   363       -0.09      5.37202
 C    92 -- C   362       -0.09      5.37202
 C    91 -- C   361       -0.09      5.37202
 C    65 -- C   395       -0.09      5.37202
 C    64 -- C   394       -0.09      5.37202
 C    63 -- C   393       -0.09      5.37202
 C    30 -- C   355       -0.09      5.37202
 C    62 -- C   392       -0.09      5.37202
 C    61 -- C   391       -0.09      5.37202
 C    29 -- C   354       -0.09      5.37202
 C    28 -- C   353       -0.09      5.37202
 C    27 -- C   352       -0.09      5.37202
 C    26 -- C   351       -0.09      5.37202
 C    55 -- C   335       -0.09      5.37202
 C    54 -- C   334       -0.09      5.37202
 C    53 -- C   333       -0.09      5.37202
 C    52 -- C   332       -0.09      5.37202
 C    51 -- C   331       -0.09      5.37202
 C    95 -- C   425       -0.09      5.37202
 C    94 -- C   424       -0.09      5.37202
 C    93 -- C   423       -0.09      5.37202
 C    92 -- C   422       -0.09      5.37202
 C    91 -- C   421       -0.09      5.37202
 C    85 -- C   355       -0.09      5.37202
 C    84 -- C   354       -0.09      5.37202
 C    83 -- C   353       -0.09      5.37202
 C    82 -- C   352       -0.09      5.37202
 C    81 -- C   351       -0.09      5.37202
 C   120 -- C   395       -0.09      5.37202
 C    55 -- C   385       -0.09      5.37202
 C   119 -- C   394       -0.09      5.37202
 C   118 -- C   393       -0.09      5.37202
 C   117 -- C   392       -0.09      5.37202
 C    54 -- C   384       -0.09      5.37202
 C   116 -- C   391       -0.09      5.37202
 C    53 -- C   383       -0.09      5.37202
 C    52 -- C   382       -0.09      5.37202
 C    51 -- C   381       -0.09      5.37202
 C   106 -- C   436       -0.09      5.37202
 C   106 -- C   376       -0.09      5.37202
 C    80 -- C   410       -0.09      5.37202
 C    79 -- C   409       -0.09      5.37202
 C    78 -- C   408       -0.09      5.37202
 C    77 -- C   407       -0.09      5.37202
 C    76 -- C   406       -0.09      5.37202
 C   135 -- C   410       -0.09      5.37202
 C   134 -- C   409       -0.09      5.37202
 C   133 -- C   408       -0.09      5.37202
 C   132 -- C   407       -0.09      5.37202
 C   131 -- C   406       -0.09      5.37202
 C   110 -- C   440       -0.09      5.37202
 C   110 -- C   380       -0.09      5.37202
 C   109 -- C   439       -0.09      5.37202
 C   109 -- C   379       -0.09      5.37202
 C   108 -- C   438       -0.09      5.37202
 C   108 -- C   378       -0.09      5.37202
 C   107 -- C   437       -0.09      5.37202
 C   107 -- C   377       -0.09      5.37202
 C   215 -- C   635       -0.10      5.38000
 C   214 -- C   634       -0.10      5.38000
 C   213 -- C   633       -0.10      5.38000
 C   212 -- C   632       -0.10      5.38000
 C   211 -- C   631       -0.10      5.38000
 C   190 -- C   620       -0.10      5.38000
 C   189 -- C   619       -0.10      5.38000
 C   188 -- C   618       -0.10      5.38000
 C   187 -- C   617       -0.10      5.38000
 C   186 -- C   616       -0.10      5.38000
 C   175 -- C   595       -0.10      5.38000
 C   174 -- C   594       -0.10      5.38000
 C   173 -- C   593       -0.10      5.38000
 C   172 -- C   592       -0.10      5.38000
 C   171 -- C   591       -0.10      5.38000
 C   245 -- C   640       -0.10      5.38000
 C   244 -- C   639       -0.10      5.38000
 C   243 -- C   638       -0.10      5.38000
 C   242 -- C   637       -0.10      5.38000
 C   241 -- C   636       -0.10      5.38000
==================================================


=================== Orbital energy and occupancy information ===================

      Total number of orbitals:    2560
        Occupancy sum (kernel):    1279.999999999
   Occupancy sum (eigenvalues):    1279.999999999
                 HOMO-LUMO gap:       0.063216276 Eh
                 Mid-gap level:       0.257823660 Eh

                        Orbital | Energy (Eh) | Occupancy
                            1    -0.465643519   1.0000000
                        .......   ...........   .........
                         1271     0.220751358   0.9999882
                         1272     0.220765727   0.9999881
                         1273     0.221222651   0.9999863
                         1274     0.221237007   0.9999862
                         1275     0.224799787   0.9999576
                         1276     0.224893726   0.9999563
                         1277     0.225255757   0.9999510
                         1278     0.225349529   0.9999496
                         1279     0.225771019   0.9999424
                         1280     0.226215522   0.9999337
                        ....... -- gap at 0K -- .........
                         1281     0.289431798   0.0000322
                         1282     0.289436766   0.0000322
                         1283     0.289682335   0.0000298
                         1284     0.289687312   0.0000297
                         1285     0.290283492   0.0000247
                         1286     0.290374504   0.0000240
                         1287     0.290549312   0.0000227
                         1288     0.290640013   0.0000220
                         1289     0.290790983   0.0000209
                         1290     0.290794582   0.0000209
                        .......   ...........   .........
                         2560     1.146584459   0.0000000

================================================================================

===================== Writing canonical molecular orbitals =====================
| Orbital  Energy (eV)  Norm     |
| HOMO      6.15563756  1.000000 | Writing "3.3808312_GO_manual_4x64graphite_HOMO.cube" ... done
Writing "3.3808312_GO_manual_4x64graphite_HOMO.dx" ... done
| LUMO      7.87583997  1.000000 | Writing "3.3808312_GO_manual_4x64graphite_LUMO.cube" ... done
Writing "3.3808312_GO_manual_4x64graphite_LUMO.dx" ... done
================================================================================
 
===================== Density of States (DOS) calculation ======================
Writing "3.3808312_GO_manual_4x64graphite_DOS.txt" ...  done
================================================================================
 
Writing bands to file "3.3808312_GO_manual_4x64graphite.val_bands" ... done
 
================ Projected Density of States (pDOS) calculation ================
 
Constructing AM resolved functions  ...... done
Writing NGWF plot files in formats: CUBE DX ...  done
 
Performing overlap integrals ...  done
 
Computing pDOS weights ...  done
 
All bands spilling parameter =   3.74 %
Occupancy-weighted spilling parameter =   0.87 %
 
 => Outputting data for OptaDOS <=
 
Writing pDOS weights to file "3.3808312_GO_manual_4x64graphite.val_pdos_bin" ... done
 
Writing band gradients to file "3.3808312_GO_manual_4x64graphite.val_dome_bin" ... done
 
Writing Castep output cell file to "3.3808312_GO_manual_4x64graphite-out.cell" ... done
 
 => Computing Gaussian smeared pDOS <= 
Writing "3.3808312_GO_manual_4x64graphite_PDOS.txt" ...  done
 
 => Computing Occupancy-weighted Gaussian smeared pDOS <= 
Writing "3.3808312_GO_manual_4x64graphite_occ_PDOS.txt" ...  done
  => Band centres: 
 S band centre of group 1:  -13.829747 eV
 P band centre of group 1:   -6.716369 eV
  Band centres done. <=
  => Integrated number of electrons in each AM band: 
 S num electrons of group 1:  574.245066
 P num electrons of group 1: 1963.579058
  Integrated number of electrons done. <=
================================================================================

------------------------------ TIMING INFORMATION ------------------------------
AVERAGE TIME:    4042.370s on     40 node(s)                                    
TOTAL TIME:      4042.372s on     40 node(s)                                    
================= AVERAGE TIMINGS FROM ALL NODES (CUMULATIVE) ==================
|| TAG                                    #calls    cpu time   %total  Gflops ||
|| work_imbalance                       :     1        0.00s   0.000%  ------ ||
|| paw_tcore_hartree_on_grid            :     1        0.01s   0.000%  ------ ||
|| paw_tcore_density                    :     1        0.01s   0.000%  ------ ||
|| paw_sphere_density_on_grid           :     1        0.01s   0.000%  ------ ||
|| sparse_set_to_garbage                :   171        0.03s   0.001%  ------ ||
|| paw_dij_hartree                      :   355        0.04s   0.001%  ------ ||
|| pseudo_make_structure_factor         :     1        0.05s   0.001%  ------ ||
|| basis_extract_function_from_box      :  1920        0.08s   0.002%  ------ ||
|| paw_species_calc_proj_prec_mat       :     1        0.12s   0.003%  ------ ||
|| density_init_guess_real              :     1        0.19s   0.005%  ------ ||
|| paw_dataset_init                     :     1        0.25s   0.006%  ------ ||
|| ngwfs_initialise_from_radial         :     2        0.66s   0.016%  ------ ||
|| restart_kernel_write                 :    16        0.72s   0.018%  ------ ||
|| dense_normal_eigensolve              :     1        0.99s   0.024%  ------ ||
|| sparse_init                          :     1        1.01s   0.025%  ------ ||
|| hartree_on_grid                      :   267        1.15s   0.029%  ------ ||
|| ewald_calculate_energy               :     1        2.54s   0.063%  ------ ||
|| projectors_init_fftbox_recip         :   151        2.90s   0.072%  ------ ||
|| fourier_apply_box_pair               :  2848        4.71s   0.116% 561.241 ||
|| basis_copy_function_to_box           : 25216        5.42s   0.134%  ------ ||
|| augmentation_screen_dij              :   272        5.90s   0.146%  ------ ||
|| sw_init                              :     1        6.73s   0.166%  ------ ||
|| sparse_embed_hotelling_invert_embed  :    29        8.62s   0.213%  ------ ||
|| ngwf_gradient_coeffs                 :    15       11.73s   0.290%  ------ ||
|| fourier_apply_cell_backward          :  8248       15.05s   0.372%  64.877 ||
|| cell_grid_extract_box_real           : 10572       16.69s   0.413%  ------ ||
|| fourier_apply_cell_forward           :  7715       17.37s   0.430%  52.591 ||
|| sparse_trace                         :  3218       19.60s   0.485%  ------ ||
|| cell_grid_deposit_box_real           : 34352       24.05s   0.595%  ------ ||
|| paw_dij_xc                           :   355       25.31s   0.626%  ------ ||
|| aug_nonlocal_mat                     :   340       36.73s   0.909%  ------ ||
|| density_fftbox_deposit_to_cell       : 17088       49.05s   1.213%  ------ ||
|| hamiltonian_energy_components        :     3       51.48s   1.274%  ------ ||
|| augmentation_density_on_grid         :   267       51.70s   1.279%  ------ ||
|| eigenstates_pdos                     :     1       53.73s   1.329%  ------ ||
|| eigenstates_calculate                :     1       57.97s   1.434%  ------ ||
|| function_ops_brappd_ketppd           :    60       65.19s   1.613%  ------ ||
|| projectors_func_ovlp_box             :    30       68.62s   1.698%  ------ ||
|| nlxc_vdw_energy                      :   532       76.03s   1.881%  ------ ||
|| xc_energy_potential                  :   266       76.49s   1.892%  ------ ||
|| properties_calculate                 :     1      105.94s   2.621%  ------ ||
|| integrals_kinetic                    :    29      111.35s   2.755%  ------ ||
|| restart_ngwfs_tightbox_output        :    14      111.50s   2.758%  ------ ||
|| dense_eigensolve                     :   234      113.26s   2.802%  ------ ||
|| potential_apply_to_ngwf_batch        :   328      129.81s   3.211%  ------ ||
|| sparse_product                       :  3250      144.12s   3.565%  ------ ||
|| basis_dot_function_with_box          : 8.215M     219.13s   5.421%  ------ ||
|| fourier_apply_box                    : 79536      246.44s   6.096% 979.810 ||
|| edft_diag_ngwf_ham                   :   233      256.13s   6.336%  ------ ||
|| projectors_gradient_batch            :    60      268.26s   6.636%  ------ ||
|| integrals_locpot_mat_els_batch       :   328      318.08s   7.869%  ------ ||
|| density_fftbox_interpolate_multiply  : 17088      331.20s   8.193%  ------ ||
|| projectors_grad_precond_batch        :    60      371.30s   9.185%  ------ ||
|| density_batch_interp_deposit         :  1068      424.38s  10.498%  ------ ||
|| integrals_locpot_dbl_grid            :    82      449.48s  11.119%  ------ ||
|| edft_apply_smearing_operator         :   233      503.02s  12.444%  ------ ||
|| basis_add_function_to_box            : 23.77M     613.38s  15.174%  ------ ||
|| ngwf_gradient_build_batch            :    60      685.07s  16.947%  ------ ||
|| ngwf_gradient_batch                  :    60      921.87s  22.805%  ------ ||
|| density_batch_row_sums               :  1068      943.59s  23.342%  ------ ||
|| ngwf_gradient_lnv                    :    15      960.31s  23.756%  ------ ||
|| density_on_dbl_grid                  :   267     1381.79s  34.183%  ------ ||
|| hamiltonian_lhxc_calculate           :   262     1491.72s  36.902%  ------ ||
|| edft_calculate                       :    15     2429.91s  60.111%  ------ ||
|| ngwf_cg_optimise                     :     1     3914.99s  96.849%  ------ ||
|| total_time                           :     1     4042.37s 100.000%  ------ ||
================================================================================
Overhead of generating timer report: 
- 0 ms averaging over threads,
- 5 ms ensuring consistency across MPI ranks,
- 0 ms printing in order.

Job completed: 21-02-2020 14:56 (-0000)

