 +---------------------------------------------------------------+
 |                                                               |
 |        ####### #     # ####### ####### ####### ######         |
 |        #     # ##    # #          #    #       #     #        |
 |        #     # # #   # #          #    #       #     #        |
 |        #     # #  #  # #####      #    #####   ######         |
 |        #     # #   # # #          #    #       #              |
 |        #     # #    ## #          #    #       #              |
 |        ####### #     # #######    #    ####### #              |
 |                                                               |
 |        Linear-Scaling Ab Initio Total Energy Program          |
 |                                                               |
 |          Release for academic collaborators of ODG            |
 |                                             Version 5.3.2.12  |
 |                                                               |
 +---------------------------------------------------------------+
 |                                                               |
 |  Authors:                                                     |
 |  Jacek Dziedzic, Peter D. Haynes, Nicholas D. M. Hine,        |
 |  Arash. A. Mostofi, Mike C. Payne and Chris-Kriton Skylaris   |
 |                                                               |
 |  Contributors:                                                |
 |  J. Aarons, L. Andrinopoulos, P. W. Avraam, R. A. Bell,       |
 |  A. Bhandari, G. A. Bramley, R. J. Charlton, S. J. Clark,     |
 |  R. J. Clements, G. C. Constantinescu, F. Corsetti,           |
 |  N. Corsini, O. Dieguez, S. M. M. Dubois, K. K. B. Duff,      |
 |  J. M. Escartin, A. Greco, H. Helal, Q. O. Hill, L. P. Lee,   |
 |  J.-H. Li, E. B. Linscott, G. Moynihan, D. D. O`Regan,        |
 |  O. K. Okan, M. J. S. Phipps, C. J. Pickard,                  |
 |  J. C. A. Prentice, M. I. J. Probert, L. E. Ratcliff,         |
 |  M. Robinson, A. Ruiz Serrano, J. S. Spencer, E. W. Tait,     |
 |  G. Teobaldi, D. Turban, V. Vitale, K. A. Wilkinson,          |
 |  C. Weber, J. C. Womack, N. Yeung and T. J. Zuehlsdorff       |
 |                                                               |
 |                                   Copyright (c) 2004-2020     |
 |                                                               |
 |  Please cite:                                                 |
 |  "Introducing ONETEP: Linear-scaling density functional       |
 |   simulations on parallel computers".                         |
 |   C.-K. Skylaris, P. D. Haynes, A. A. Mostofi, M. C. Payne.   |
 |   J. Chem. Phys. 122 084119 (2005).                           |
 |                                                               |
 |          in all publications arising from your use of ONETEP. |
 |                                                               |
 +---------------------------------------------------------------+
 |                                                               |
 |   ONETEP is based on developments described in the following  |
 |   publications:                                               |
 |                                                               |
 |  "Nonorthogonal generalized Wannier function pseudopotential  |
 |   plane-wave method".                                         |
 |   C.-K. Skylaris, A. A. Mostofi, P. D. Haynes, O. Dieguez,    |
 |   M. C. Payne.                                                |
 |   Phys. Rev. B 66 035119 (2002).                              |
 |                                                               |
 |  "Preconditioned iterative minimization for linear-scaling    |
 |   electronic structure calculations".                         |
 |   A. A. Mostofi, P. D. Haynes, C.-K. Skylaris, M. C. Payne.   |
 |   J. Chem. Phys. 119(17), pp.8842-8848 (2003).                |
 |                                                               |
 |  "Total-energy calculations on a real space grid with         |
 |   localized functions and a plane-wave basis".                |
 |   A. A. Mostofi, C.-K. Skylaris, P. D. Haynes, M. C. Payne.   |
 |   Comput. Phys. Commun. 147, pp.788-802 (2002).               |
 |                                                               |
 |  "Accurate kinetic energy evaluation in electronic structure  |
 |   calculations with localized functions on real space grids"  |
 |   C.-K. Skylaris, A. A. Mostofi, P. D. Haynes, C. J. Pickard, |
 |   M. C. Payne.                                                |
 |   Comput. Phys. Commun. 140, pp.315-322 (2001).               |
 |                                                               |
 |  "Accurate ionic forces and geometry optimization in linear-  |
 |   scaling density-functional theory with local orbitals"      |
 |   N. D. M. Hine, M. Robinson, P. D. Haynes, C.-K. Skylaris,   |
 |   M. C. Payne, and A. A. Mostofi.                             |
 |   Phys. Rev. B 83 195102 (2011).                              |
 |                                                               |
 +---------------------------------------------------------------+

Job started: 21-02-2020 14:26 (-0000)
 
Reading parameters from file "3.5418184_GO_manual_4x64graphite.dat" ...

WARNING: "cutoff_energy" not specified, but "psinc_spacing" specified.
         Using the latter to set the KE cutoff energy to  732.32021eV,
         thus *overriding* the default.

... done

If your calculation crashes here, before "Checking processes and threads..."
is displayed, then your stack size is insufficient.
If so, use "ulimit -s unlimited" at runtime.
You can disable this check with "check_stack_size F".

Checking processes and threads...
   Determining the default number of threads...
      No default threads set at compilation time: defaulting to 1.
      OpenMP library call suggests 4 threads.
      Hybrid MPI-OpenMP compilation detected.
      Number of MPI processes > 1.
      OMP_NUM_THREADS environment variable present and
      its value matches the one obtained from the OpenMP library call.
      Using this value as default.
      Default threads: 4
      Default applies to threads_max and threads_num_fftboxes.
      Settings in the input file override this default.
   ... done

   Running with 40 MPI processes.
   There are 10 MPI processes running on the same node as the root process.
   Each MPI process is using: 
               1 threads for simulation cell FFTs.
               1 threads for parallel FFT box operations.
               4 threads for loops over batched FFT box operations.
               4 threads in other parallel regions.
... done

Basic input checks...
Resetting ngwf_cg_rotate to TRUE for EDFT calculations
... done

Reading geometry and species blocks from file "3.5418184_GO_manual_4x64graphite.dat" ...
    
  PSINC grid spacing along a1 set to   0.511215680000a0 from input file.
  PSINC grid spacing along a2 set to   0.531284090000a0 from input file.
  PSINC grid spacing along a3 set to   0.507051550000a0 from input file.
  Number of PPD points along a3 set to 1.  This is 
  the default value, it may have been provided also in the input file.
... done
 Writing xyz coordinates to file "3.5418184_GO_manual_4x64graphite.xyz" ... done


--------------------------------------------------------------------------------
---------------------------------- INPUT FILE ----------------------------------
--------------------------------------------------------------------------------

task : singlepoint                                                              
do_properties : true                                                            
dx_format T                                                                     
edft T                                                                          
output_detail VERBOSE                                                           
write_xyz T                                                                     
xc_functional VV10                                                              
PSINC_SPACING 0.51121568 0.53128409 0.50705155                                  
paw T                                                                           
pdos_max_l = 2                                                                  
dos_smear  0.1 eV                                                               
popn_calculate T                                                                
PDOS_PSEUDOATOMIC T                                                             
PDOS_REDUCE_SWS F                                                               
PDOS_CONSTRUCT_BASIS F                                                          
PDOS_LOWDIN T                                                                   
PDOS_ORTH_ATOM_BLOCKS F                                                         
PDOS_LCAO_OPTIMIZE F                                                            
pdos_optados_output T                                                           
homo_plot 0                                                                     
lumo_plot 0                                                                     
homo_dens_plot -1                                                               
lumo_dens_plot -1                                                               
%BLOCK SPECIES                                                                  
C C 6 4 9.0                                                                     
%ENDBLOCK SPECIES                                                               
%BLOCK SPECIES_POT                                                              
C "~/pp/paw/c_pbe_abinit.paw"                                                   
%ENDBLOCK SPECIES_POT                                                           
%BLOCK SPECIES_ATOMIC_SET                                                       
C "SOLVE conf=2s2 2p2"                                                          
%ENDBLOCK SPECIES_ATOMIC_SET                                                    
%BLOCK LATTICE_CART                                                             
32.21  0.00  0.00                                                               
0.00 18.59  0.00                                                                
0.00  0.00 66.93                                                                
%ENDBLOCK LATTICE_CART                                                          
%BLOCK POSITIONS_ABS                                                            
C  0.00  0.00  3.35                                                             
C  0.00  0.00 16.73                                                             
C  0.00  0.00 30.12                                                             
C  0.00  0.00 43.51                                                             
C  0.00  0.00 56.89                                                             
C  0.00  4.65  3.35                                                             
C  0.00  4.65 16.73                                                             
C  0.00  4.65 30.12                                                             
C  0.00  4.65 43.51                                                             
C  0.00  4.65 56.89                                                             
C  4.03  2.32  3.35                                                             
C  4.03  2.32 16.73                                                             
C  4.03  2.32 30.12                                                             
C  4.03  2.32 43.51                                                             
C  4.03  2.32 56.89                                                             
C  8.05  0.00  3.35                                                             
C  8.05  0.00 16.73                                                             
C  8.05  0.00 30.12                                                             
C  8.05  0.00 43.51                                                             
C  8.05  0.00 56.89                                                             
C  0.00  9.30  3.35                                                             
C  0.00  9.30 16.73                                                             
C  0.00  9.30 30.12                                                             
C  0.00  9.30 43.51                                                             
C  0.00  9.30 56.89                                                             
C  4.03  6.97  3.35                                                             
C  4.03  6.97 16.73                                                             
C  4.03  6.97 30.12                                                             
C  4.03  6.97 43.51                                                             
C  4.03  6.97 56.89                                                             
C  8.05  4.65  3.35                                                             
C  8.05  4.65 16.73                                                             
C  8.05  4.65 30.12                                                             
C  8.05  4.65 43.51                                                             
C  8.05  4.65 56.89                                                             
C 12.08  2.32  3.35                                                             
C 12.08  2.32 16.73                                                             
C 12.08  2.32 30.12                                                             
C 12.08  2.32 43.51                                                             
C 12.08  2.32 56.89                                                             
C 16.10  0.00  3.35                                                             
C 16.10  0.00 16.73                                                             
C 16.10  0.00 30.12                                                             
C 16.10  0.00 43.51                                                             
C 16.10  0.00 56.89                                                             
C  0.00 13.95  3.35                                                             
C  0.00 13.95 16.73                                                             
C  0.00 13.95 30.12                                                             
C  0.00 13.95 43.51                                                             
C  0.00 13.95 56.89                                                             
C  4.03 11.62  3.35                                                             
C  4.03 11.62 16.73                                                             
C  4.03 11.62 30.12                                                             
C  4.03 11.62 43.51                                                             
C  4.03 11.62 56.89                                                             
C  8.05  9.30  3.35                                                             
C  8.05  9.30 16.73                                                             
C  8.05  9.30 30.12                                                             
C  8.05  9.30 43.51                                                             
C  8.05  9.30 56.89                                                             
C 12.08  6.97  3.35                                                             
C 12.08  6.97 16.73                                                             
C 12.08  6.97 30.12                                                             
C 12.08  6.97 43.51                                                             
C 12.08  6.97 56.89                                                             
C 16.10  4.65  3.35                                                             
C 16.10  4.65 16.73                                                             
C 16.10  4.65 30.12                                                             
C 16.10  4.65 43.51                                                             
C 16.10  4.65 56.89                                                             
C 20.13  2.32  3.35                                                             
C 20.13  2.32 16.73                                                             
C 20.13  2.32 30.12                                                             
C 20.13  2.32 43.51                                                             
C 20.13  2.32 56.89                                                             
C 24.16  0.00  3.35                                                             
C 24.16  0.00 16.73                                                             
C 24.16  0.00 30.12                                                             
C 24.16  0.00 43.51                                                             
C 24.16  0.00 56.89                                                             
C  4.03 16.27  3.35                                                             
C  4.03 16.27 16.73                                                             
C  4.03 16.27 30.12                                                             
C  4.03 16.27 43.51                                                             
C  4.03 16.27 56.89                                                             
C  8.05 13.95  3.35                                                             
C  8.05 13.95 16.73                                                             
C  8.05 13.95 30.12                                                             
C  8.05 13.95 43.51                                                             
C  8.05 13.95 56.89                                                             
C 12.08 11.62  3.35                                                             
C 12.08 11.62 16.73                                                             
C 12.08 11.62 30.12                                                             
C 12.08 11.62 43.51                                                             
C 12.08 11.62 56.89                                                             
C 16.10  9.30  3.35                                                             
C 16.10  9.30 16.73                                                             
C 16.10  9.30 30.12                                                             
C 16.10  9.30 43.51                                                             
C 16.10  9.30 56.89                                                             
C 20.13  6.97  3.35                                                             
C 20.13  6.97 16.73                                                             
C 20.13  6.97 30.12                                                             
C 20.13  6.97 43.51                                                             
C 20.13  6.97 56.89                                                             
C 24.16  4.65  3.35                                                             
C 24.16  4.65 16.73                                                             
C 24.16  4.65 30.12                                                             
C 24.16  4.65 43.51                                                             
C 24.16  4.65 56.89                                                             
C 28.18  2.32  3.35                                                             
C 28.18  2.32 16.73                                                             
C 28.18  2.32 30.12                                                             
C 28.18  2.32 43.51                                                             
C 28.18  2.32 56.89                                                             
C 12.08 16.27  3.35                                                             
C 12.08 16.27 16.73                                                             
C 12.08 16.27 30.12                                                             
C 12.08 16.27 43.51                                                             
C 12.08 16.27 56.89                                                             
C 16.10 13.95  3.35                                                             
C 16.10 13.95 16.73                                                             
C 16.10 13.95 30.12                                                             
C 16.10 13.95 43.51                                                             
C 16.10 13.95 56.89                                                             
C 20.13 11.62  3.35                                                             
C 20.13 11.62 16.73                                                             
C 20.13 11.62 30.12                                                             
C 20.13 11.62 43.51                                                             
C 20.13 11.62 56.89                                                             
C 24.16  9.30  3.35                                                             
C 24.16  9.30 16.73                                                             
C 24.16  9.30 30.12                                                             
C 24.16  9.30 43.51                                                             
C 24.16  9.30 56.89                                                             
C 28.18  6.97  3.35                                                             
C 28.18  6.97 16.73                                                             
C 28.18  6.97 30.12                                                             
C 28.18  6.97 43.51                                                             
C 28.18  6.97 56.89                                                             
C 20.13 16.27  3.35                                                             
C 20.13 16.27 16.73                                                             
C 20.13 16.27 30.12                                                             
C 20.13 16.27 43.51                                                             
C 20.13 16.27 56.89                                                             
C 24.16 13.95  3.35                                                             
C 24.16 13.95 16.73                                                             
C 24.16 13.95 30.12                                                             
C 24.16 13.95 43.51                                                             
C 24.16 13.95 56.89                                                             
C 28.18 11.62  3.35                                                             
C 28.18 11.62 16.73                                                             
C 28.18 11.62 30.12                                                             
C 28.18 11.62 43.51                                                             
C 28.18 11.62 56.89                                                             
C 28.18 16.27  3.35                                                             
C 28.18 16.27 16.73                                                             
C 28.18 16.27 30.12                                                             
C 28.18 16.27 43.51                                                             
C 28.18 16.27 56.89                                                             
C  0.00  0.00 10.04                                                             
C  0.00  0.00 23.43                                                             
C  0.00  0.00 36.81                                                             
C  0.00  0.00 50.20                                                             
C  0.00  0.00 63.58                                                             
C  0.00  4.65 10.04                                                             
C  0.00  4.65 23.43                                                             
C  0.00  4.65 36.81                                                             
C  0.00  4.65 50.20                                                             
C  0.00  4.65 63.58                                                             
C  4.03  2.32 10.04                                                             
C  4.03  2.32 23.43                                                             
C  4.03  2.32 36.81                                                             
C  4.03  2.32 50.20                                                             
C  4.03  2.32 63.58                                                             
C  8.05  0.00 10.04                                                             
C  8.05  0.00 23.43                                                             
C  8.05  0.00 36.81                                                             
C  8.05  0.00 50.20                                                             
C  8.05  0.00 63.58                                                             
C  0.00  9.30 10.04                                                             
C  0.00  9.30 23.43                                                             
C  0.00  9.30 36.81                                                             
C  0.00  9.30 50.20                                                             
C  0.00  9.30 63.58                                                             
C  4.03  6.97 10.04                                                             
C  4.03  6.97 23.43                                                             
C  4.03  6.97 36.81                                                             
C  4.03  6.97 50.20                                                             
C  4.03  6.97 63.58                                                             
C  8.05  4.65 10.04                                                             
C  8.05  4.65 23.43                                                             
C  8.05  4.65 36.81                                                             
C  8.05  4.65 50.20                                                             
C  8.05  4.65 63.58                                                             
C 12.08  2.32 10.04                                                             
C 12.08  2.32 23.43                                                             
C 12.08  2.32 36.81                                                             
C 12.08  2.32 50.20                                                             
C 12.08  2.32 63.58                                                             
C 16.10  0.00 10.04                                                             
C 16.10  0.00 23.43                                                             
C 16.10  0.00 36.81                                                             
C 16.10  0.00 50.20                                                             
C 16.10  0.00 63.58                                                             
C  0.00 13.95 10.04                                                             
C  0.00 13.95 23.43                                                             
C  0.00 13.95 36.81                                                             
C  0.00 13.95 50.20                                                             
C  0.00 13.95 63.58                                                             
C  4.03 11.62 10.04                                                             
C  4.03 11.62 23.43                                                             
C  4.03 11.62 36.81                                                             
C  4.03 11.62 50.20                                                             
C  4.03 11.62 63.58                                                             
C  8.05  9.30 10.04                                                             
C  8.05  9.30 23.43                                                             
C  8.05  9.30 36.81                                                             
C  8.05  9.30 50.20                                                             
C  8.05  9.30 63.58                                                             
C 12.08  6.97 10.04                                                             
C 12.08  6.97 23.43                                                             
C 12.08  6.97 36.81                                                             
C 12.08  6.97 50.20                                                             
C 12.08  6.97 63.58                                                             
C 16.10  4.65 10.04                                                             
C 16.10  4.65 23.43                                                             
C 16.10  4.65 36.81                                                             
C 16.10  4.65 50.20                                                             
C 16.10  4.65 63.58                                                             
C 20.13  2.32 10.04                                                             
C 20.13  2.32 23.43                                                             
C 20.13  2.32 36.81                                                             
C 20.13  2.32 50.20                                                             
C 20.13  2.32 63.58                                                             
C 24.16  0.00 10.04                                                             
C 24.16  0.00 23.43                                                             
C 24.16  0.00 36.81                                                             
C 24.16  0.00 50.20                                                             
C 24.16  0.00 63.58                                                             
C  4.03 16.27 10.04                                                             
C  4.03 16.27 23.43                                                             
C  4.03 16.27 36.81                                                             
C  4.03 16.27 50.20                                                             
C  4.03 16.27 63.58                                                             
C  8.05 13.95 10.04                                                             
C  8.05 13.95 23.43                                                             
C  8.05 13.95 36.81                                                             
C  8.05 13.95 50.20                                                             
C  8.05 13.95 63.58                                                             
C 12.08 11.62 10.04                                                             
C 12.08 11.62 23.43                                                             
C 12.08 11.62 36.81                                                             
C 12.08 11.62 50.20                                                             
C 12.08 11.62 63.58                                                             
C 16.10  9.30 10.04                                                             
C 16.10  9.30 23.43                                                             
C 16.10  9.30 36.81                                                             
C 16.10  9.30 50.20                                                             
C 16.10  9.30 63.58                                                             
C 20.13  6.97 10.04                                                             
C 20.13  6.97 23.43                                                             
C 20.13  6.97 36.81                                                             
C 20.13  6.97 50.20                                                             
C 20.13  6.97 63.58                                                             
C 24.16  4.65 10.04                                                             
C 24.16  4.65 23.43                                                             
C 24.16  4.65 36.81                                                             
C 24.16  4.65 50.20                                                             
C 24.16  4.65 63.58                                                             
C 28.18  2.32 10.04                                                             
C 28.18  2.32 23.43                                                             
C 28.18  2.32 36.81                                                             
C 28.18  2.32 50.20                                                             
C 28.18  2.32 63.58                                                             
C 12.08 16.27 10.04                                                             
C 12.08 16.27 23.43                                                             
C 12.08 16.27 36.81                                                             
C 12.08 16.27 50.20                                                             
C 12.08 16.27 63.58                                                             
C 16.10 13.95 10.04                                                             
C 16.10 13.95 23.43                                                             
C 16.10 13.95 36.81                                                             
C 16.10 13.95 50.20                                                             
C 16.10 13.95 63.58                                                             
C 20.13 11.62 10.04                                                             
C 20.13 11.62 23.43                                                             
C 20.13 11.62 36.81                                                             
C 20.13 11.62 50.20                                                             
C 20.13 11.62 63.58                                                             
C 24.16  9.30 10.04                                                             
C 24.16  9.30 23.43                                                             
C 24.16  9.30 36.81                                                             
C 24.16  9.30 50.20                                                             
C 24.16  9.30 63.58                                                             
C 28.18  6.97 10.04                                                             
C 28.18  6.97 23.43                                                             
C 28.18  6.97 36.81                                                             
C 28.18  6.97 50.20                                                             
C 28.18  6.97 63.58                                                             
C 20.13 16.27 10.04                                                             
C 20.13 16.27 23.43                                                             
C 20.13 16.27 36.81                                                             
C 20.13 16.27 50.20                                                             
C 20.13 16.27 63.58                                                             
C 24.16 13.95 10.04                                                             
C 24.16 13.95 23.43                                                             
C 24.16 13.95 36.81                                                             
C 24.16 13.95 50.20                                                             
C 24.16 13.95 63.58                                                             
C 28.18 11.62 10.04                                                             
C 28.18 11.62 23.43                                                             
C 28.18 11.62 36.81                                                             
C 28.18 11.62 50.20                                                             
C 28.18 11.62 63.58                                                             
C 28.18 16.27 10.04                                                             
C 28.18 16.27 23.43                                                             
C 28.18 16.27 36.81                                                             
C 28.18 16.27 50.20                                                             
C 28.18 16.27 63.58                                                             
C  1.34  2.32  3.35                                                             
C  1.34  2.32 16.73                                                             
C  1.34  2.32 30.12                                                             
C  1.34  2.32 43.51                                                             
C  1.34  2.32 56.89                                                             
C  5.37  0.00  3.35                                                             
C  5.37  0.00 16.73                                                             
C  5.37  0.00 30.12                                                             
C  5.37  0.00 43.51                                                             
C  5.37  0.00 56.89                                                             
C  1.34  6.97  3.35                                                             
C  1.34  6.97 16.73                                                             
C  1.34  6.97 30.12                                                             
C  1.34  6.97 43.51                                                             
C  1.34  6.97 56.89                                                             
C  5.37  4.65  3.35                                                             
C  5.37  4.65 16.73                                                             
C  5.37  4.65 30.12                                                             
C  5.37  4.65 43.51                                                             
C  5.37  4.65 56.89                                                             
C  9.39  2.32  3.35                                                             
C  9.39  2.32 16.73                                                             
C  9.39  2.32 30.12                                                             
C  9.39  2.32 43.51                                                             
C  9.39  2.32 56.89                                                             
C 13.42  0.00  3.35                                                             
C 13.42  0.00 16.73                                                             
C 13.42  0.00 30.12                                                             
C 13.42  0.00 43.51                                                             
C 13.42  0.00 56.89                                                             
C  1.34 11.62  3.35                                                             
C  1.34 11.62 16.73                                                             
C  1.34 11.62 30.12                                                             
C  1.34 11.62 43.51                                                             
C  1.34 11.62 56.89                                                             
C  5.37  9.30  3.35                                                             
C  5.37  9.30 16.73                                                             
C  5.37  9.30 30.12                                                             
C  5.37  9.30 43.51                                                             
C  5.37  9.30 56.89                                                             
C  9.39  6.97  3.35                                                             
C  9.39  6.97 16.73                                                             
C  9.39  6.97 30.12                                                             
C  9.39  6.97 43.51                                                             
C  9.39  6.97 56.89                                                             
C 13.42  4.65  3.35                                                             
C 13.42  4.65 16.73                                                             
C 13.42  4.65 30.12                                                             
C 13.42  4.65 43.51                                                             
C 13.42  4.65 56.89                                                             
C 17.45  2.32  3.35                                                             
C 17.45  2.32 16.73                                                             
C 17.45  2.32 30.12                                                             
C 17.45  2.32 43.51                                                             
C 17.45  2.32 56.89                                                             
C 21.47  0.00  3.35                                                             
C 21.47  0.00 16.73                                                             
C 21.47  0.00 30.12                                                             
C 21.47  0.00 43.51                                                             
C 21.47  0.00 56.89                                                             
C  1.34 16.27  3.35                                                             
C  1.34 16.27 16.73                                                             
C  1.34 16.27 30.12                                                             
C  1.34 16.27 43.51                                                             
C  1.34 16.27 56.89                                                             
C  5.37 13.95  3.35                                                             
C  5.37 13.95 16.73                                                             
C  5.37 13.95 30.12                                                             
C  5.37 13.95 43.51                                                             
C  5.37 13.95 56.89                                                             
C  9.39 11.62  3.35                                                             
C  9.39 11.62 16.73                                                             
C  9.39 11.62 30.12                                                             
C  9.39 11.62 43.51                                                             
C  9.39 11.62 56.89                                                             
C 13.42  9.30  3.35                                                             
C 13.42  9.30 16.73                                                             
C 13.42  9.30 30.12                                                             
C 13.42  9.30 43.51                                                             
C 13.42  9.30 56.89                                                             
C 17.45  6.97  3.35                                                             
C 17.45  6.97 16.73                                                             
C 17.45  6.97 30.12                                                             
C 17.45  6.97 43.51                                                             
C 17.45  6.97 56.89                                                             
C 21.47  4.65  3.35                                                             
C 21.47  4.65 16.73                                                             
C 21.47  4.65 30.12                                                             
C 21.47  4.65 43.51                                                             
C 21.47  4.65 56.89                                                             
C 25.50  2.32  3.35                                                             
C 25.50  2.32 16.73                                                             
C 25.50  2.32 30.12                                                             
C 25.50  2.32 43.51                                                             
C 25.50  2.32 56.89                                                             
C 29.52  0.00  3.35                                                             
C 29.52  0.00 16.73                                                             
C 29.52  0.00 30.12                                                             
C 29.52  0.00 43.51                                                             
C 29.52  0.00 56.89                                                             
C  9.39 16.27  3.35                                                             
C  9.39 16.27 16.73                                                             
C  9.39 16.27 30.12                                                             
C  9.39 16.27 43.51                                                             
C  9.39 16.27 56.89                                                             
C 13.42 13.95  3.35                                                             
C 13.42 13.95 16.73                                                             
C 13.42 13.95 30.12                                                             
C 13.42 13.95 43.51                                                             
C 13.42 13.95 56.89                                                             
C 17.45 11.62  3.35                                                             
C 17.45 11.62 16.73                                                             
C 17.45 11.62 30.12                                                             
C 17.45 11.62 43.51                                                             
C 17.45 11.62 56.89                                                             
C 21.47  9.30  3.35                                                             
C 21.47  9.30 16.73                                                             
C 21.47  9.30 30.12                                                             
C 21.47  9.30 43.51                                                             
C 21.47  9.30 56.89                                                             
C 25.50  6.97  3.35                                                             
C 25.50  6.97 16.73                                                             
C 25.50  6.97 30.12                                                             
C 25.50  6.97 43.51                                                             
C 25.50  6.97 56.89                                                             
C 29.52  4.65  3.35                                                             
C 29.52  4.65 16.73                                                             
C 29.52  4.65 30.12                                                             
C 29.52  4.65 43.51                                                             
C 29.52  4.65 56.89                                                             
C 17.45 16.27  3.35                                                             
C 17.45 16.27 16.73                                                             
C 17.45 16.27 30.12                                                             
C 17.45 16.27 43.51                                                             
C 17.45 16.27 56.89                                                             
C 21.47 13.95  3.35                                                             
C 21.47 13.95 16.73                                                             
C 21.47 13.95 30.12                                                             
C 21.47 13.95 43.51                                                             
C 21.47 13.95 56.89                                                             
C 25.50 11.62  3.35                                                             
C 25.50 11.62 16.73                                                             
C 25.50 11.62 30.12                                                             
C 25.50 11.62 43.51                                                             
C 25.50 11.62 56.89                                                             
C 29.52  9.30  3.35                                                             
C 29.52  9.30 16.73                                                             
C 29.52  9.30 30.12                                                             
C 29.52  9.30 43.51                                                             
C 29.52  9.30 56.89                                                             
C 25.50 16.27  3.35                                                             
C 25.50 16.27 16.73                                                             
C 25.50 16.27 30.12                                                             
C 25.50 16.27 43.51                                                             
C 25.50 16.27 56.89                                                             
C 29.52 13.95  3.35                                                             
C 29.52 13.95 16.73                                                             
C 29.52 13.95 30.12                                                             
C 29.52 13.95 43.51                                                             
C 29.52 13.95 56.89                                                             
C  2.68  0.00 10.04                                                             
C  2.68  0.00 23.43                                                             
C  2.68  0.00 36.81                                                             
C  2.68  0.00 50.20                                                             
C  2.68  0.00 63.58                                                             
C  2.68  4.65 10.04                                                             
C  2.68  4.65 23.43                                                             
C  2.68  4.65 36.81                                                             
C  2.68  4.65 50.20                                                             
C  2.68  4.65 63.58                                                             
C  6.71  2.32 10.04                                                             
C  6.71  2.32 23.43                                                             
C  6.71  2.32 36.81                                                             
C  6.71  2.32 50.20                                                             
C  6.71  2.32 63.58                                                             
C 10.74  0.00 10.04                                                             
C 10.74  0.00 23.43                                                             
C 10.74  0.00 36.81                                                             
C 10.74  0.00 50.20                                                             
C 10.74  0.00 63.58                                                             
C  2.68  9.30 10.04                                                             
C  2.68  9.30 23.43                                                             
C  2.68  9.30 36.81                                                             
C  2.68  9.30 50.20                                                             
C  2.68  9.30 63.58                                                             
C  6.71  6.97 10.04                                                             
C  6.71  6.97 23.43                                                             
C  6.71  6.97 36.81                                                             
C  6.71  6.97 50.20                                                             
C  6.71  6.97 63.58                                                             
C 10.74  4.65 10.04                                                             
C 10.74  4.65 23.43                                                             
C 10.74  4.65 36.81                                                             
C 10.74  4.65 50.20                                                             
C 10.74  4.65 63.58                                                             
C 14.76  2.32 10.04                                                             
C 14.76  2.32 23.43                                                             
C 14.76  2.32 36.81                                                             
C 14.76  2.32 50.20                                                             
C 14.76  2.32 63.58                                                             
C 18.79  0.00 10.04                                                             
C 18.79  0.00 23.43                                                             
C 18.79  0.00 36.81                                                             
C 18.79  0.00 50.20                                                             
C 18.79  0.00 63.58                                                             
C  2.68 13.95 10.04                                                             
C  2.68 13.95 23.43                                                             
C  2.68 13.95 36.81                                                             
C  2.68 13.95 50.20                                                             
C  2.68 13.95 63.58                                                             
C  6.71 11.62 10.04                                                             
C  6.71 11.62 23.43                                                             
C  6.71 11.62 36.81                                                             
C  6.71 11.62 50.20                                                             
C  6.71 11.62 63.58                                                             
C 10.74  9.30 10.04                                                             
C 10.74  9.30 23.43                                                             
C 10.74  9.30 36.81                                                             
C 10.74  9.30 50.20                                                             
C 10.74  9.30 63.58                                                             
C 14.76  6.97 10.04                                                             
C 14.76  6.97 23.43                                                             
C 14.76  6.97 36.81                                                             
C 14.76  6.97 50.20                                                             
C 14.76  6.97 63.58                                                             
C 18.79  4.65 10.04                                                             
C 18.79  4.65 23.43                                                             
C 18.79  4.65 36.81                                                             
C 18.79  4.65 50.20                                                             
C 18.79  4.65 63.58                                                             
C 22.81  2.32 10.04                                                             
C 22.81  2.32 23.43                                                             
C 22.81  2.32 36.81                                                             
C 22.81  2.32 50.20                                                             
C 22.81  2.32 63.58                                                             
C 26.84  0.00 10.04                                                             
C 26.84  0.00 23.43                                                             
C 26.84  0.00 36.81                                                             
C 26.84  0.00 50.20                                                             
C 26.84  0.00 63.58                                                             
C  6.71 16.27 10.04                                                             
C  6.71 16.27 23.43                                                             
C  6.71 16.27 36.81                                                             
C  6.71 16.27 50.20                                                             
C  6.71 16.27 63.58                                                             
C 10.74 13.95 10.04                                                             
C 10.74 13.95 23.43                                                             
C 10.74 13.95 36.81                                                             
C 10.74 13.95 50.20                                                             
C 10.74 13.95 63.58                                                             
C 14.76 11.62 10.04                                                             
C 14.76 11.62 23.43                                                             
C 14.76 11.62 36.81                                                             
C 14.76 11.62 50.20                                                             
C 14.76 11.62 63.58                                                             
C 18.79  9.30 10.04                                                             
C 18.79  9.30 23.43                                                             
C 18.79  9.30 36.81                                                             
C 18.79  9.30 50.20                                                             
C 18.79  9.30 63.58                                                             
C 22.81  6.97 10.04                                                             
C 22.81  6.97 23.43                                                             
C 22.81  6.97 36.81                                                             
C 22.81  6.97 50.20                                                             
C 22.81  6.97 63.58                                                             
C 26.84  4.65 10.04                                                             
C 26.84  4.65 23.43                                                             
C 26.84  4.65 36.81                                                             
C 26.84  4.65 50.20                                                             
C 26.84  4.65 63.58                                                             
C 30.86  2.32 10.04                                                             
C 30.86  2.32 23.43                                                             
C 30.86  2.32 36.81                                                             
C 30.86  2.32 50.20                                                             
C 30.86  2.32 63.58                                                             
C 14.76 16.27 10.04                                                             
C 14.76 16.27 23.43                                                             
C 14.76 16.27 36.81                                                             
C 14.76 16.27 50.20                                                             
C 14.76 16.27 63.58                                                             
C 18.79 13.95 10.04                                                             
C 18.79 13.95 23.43                                                             
C 18.79 13.95 36.81                                                             
C 18.79 13.95 50.20                                                             
C 18.79 13.95 63.58                                                             
C 22.81 11.62 10.04                                                             
C 22.81 11.62 23.43                                                             
C 22.81 11.62 36.81                                                             
C 22.81 11.62 50.20                                                             
C 22.81 11.62 63.58                                                             
C 26.84  9.30 10.04                                                             
C 26.84  9.30 23.43                                                             
C 26.84  9.30 36.81                                                             
C 26.84  9.30 50.20                                                             
C 26.84  9.30 63.58                                                             
C 30.86  6.97 10.04                                                             
C 30.86  6.97 23.43                                                             
C 30.86  6.97 36.81                                                             
C 30.86  6.97 50.20                                                             
C 30.86  6.97 63.58                                                             
C 22.81 16.27 10.04                                                             
C 22.81 16.27 23.43                                                             
C 22.81 16.27 36.81                                                             
C 22.81 16.27 50.20                                                             
C 22.81 16.27 63.58                                                             
C 26.84 13.95 10.04                                                             
C 26.84 13.95 23.43                                                             
C 26.84 13.95 36.81                                                             
C 26.84 13.95 50.20                                                             
C 26.84 13.95 63.58                                                             
C 30.86 11.62 10.04                                                             
C 30.86 11.62 23.43                                                             
C 30.86 11.62 36.81                                                             
C 30.86 11.62 50.20                                                             
C 30.86 11.62 63.58                                                             
C 30.86 16.27 10.04                                                             
C 30.86 16.27 23.43                                                             
C 30.86 16.27 36.81                                                             
C 30.86 16.27 50.20                                                             
C 30.86 16.27 63.58                                                             
%ENDBLOCK POSITIONS_ABS                                                         

--------------------------------------------------------------------------------
-------------------------------- END INPUT FILE --------------------------------
--------------------------------------------------------------------------------


 
<<<<<<<<<<<<<<<<<<<<<<<<<<<<<<<<< Full system >>>>>>>>>>>>>>>>>>>>>>>>>>>>>>>>>>
<<<<<<<<<<<<<<<<<<<<<<<<<<< PAW Dataset information >>>>>>>>>>>>>>>>>>>>>>>>>>>
File: ~/pp/paw/c_pbe_abinit.paw; rc = 1.25 bohr; shape type =  3; rshape = 1.25 bohr;
  Atomic number:  6;  ionic charge:  4.000000
    Partial Wave 1: l = 0
    Partial Wave 2: l = 0
    Partial Wave 3: l = 1
    Partial Wave 4: l = 1
  Core charge supplied for Nonlinear Core Corrections
<<<<<<<<<<<<<<<<<<<<<<<<<<<<<<<<<<<<<<< >>>>>>>>>>>>>>>>>>>>>>>>>>>>>>>>>>>>>>>

-------------------------- Atom counting information ---------------------------
Symbol    Natoms    Nngwfs    Nprojs
  C        640      2560      5120
.......   ......    ......    ......
Totals:    640      2560      5120
--------------------------------------------------------------------------------

=============================== PSINC grid sizes ===============================
                      Simulation cell:   63 x  35 x 132
                              FFT-box:   63 x  35 x 117
                                  PPD:    7 x   5 x   1
Grid space d1=  0.511269841270a0 (KE cutoff=  29.06054Eh = 790.77748eV)
Grid space d2=  0.531142857143a0 (KE cutoff=  26.92659Eh = 732.70972eV)
Grid space d3=  0.507045454545a0 (KE cutoff=  29.54678Eh = 804.00890eV)
================================================================================
  
WARNING in cell_grid_distribute:
Average of less than one 23-slab per node, so workload cannot be
equally balanced between nodes.

********************* Fourier parallelisation information **********************
       Coarse grid (whole simulation cell) dimensions:     63    35   132
          Real-space ('12') slabs/node (min max mean):      3     4     3
         Recip-space ('23') slabs/node (min max mean):      0     1     0
********************************************************************************

********************* Fourier parallelisation information **********************
       Double grid (whole simulation cell) dimensions:    126    70   264
          Real-space ('12') slabs/node (min max mean):      6     7     6
         Recip-space ('23') slabs/node (min max mean):      1     2     1
********************************************************************************

Atom SCF Calculation for C  : Z (AE atom) =   6 : Z (PS atom) =   4
Config String: 2s2 2p2
Orbitals (num,occ):  2     2.00 2.00
Orbitals   (num,l):  2        0    1
Real-space Grid (nr,dr,rmax): 1293    0.0069659443    9.0000000000
Spherical Bessel Basis (nsws,lmax,cutoff):   37    2  161.4736382572
Confining potential (l,width,scale):  0    3.0000000000  100.0000000000
Confining potential (l,width,scale):  1    3.0000000000  100.0000000000
  1         -5.4283124456   -1.2935102156    4.5135257941   -1.5923561795
  2         -5.4241534249   -1.3636937911    4.4427183619   -1.5694122055
  3         -5.4326289545   -1.3865748334    4.4195613881   -1.5634604620
  4         -5.4368073263   -1.3933479911    4.4127833993   -1.5619680687
  5         -5.4388652800   -1.3969668505    4.4091714945   -1.5612108736
  6         -5.4399077146   -1.3988848872    4.4072644158   -1.5608235486
  7         -5.4404434041   -1.3998980658    4.4062615348   -1.5606243010
  8         -5.4407208401   -1.4004325328    4.4057350952   -1.5605214507
  9         -5.4408651553   -1.4007143559    4.4054589454   -1.5604682523
 10         -5.4409404127   -1.4008629743    4.4053141024   -1.5604407028
 11         -5.4409797152   -1.4009413770    4.4052381126   -1.5604264250
 12         -5.4410002582   -1.4009827603    4.4051982277   -1.5604190215
 13         -5.4410110012   -1.4010046176    4.4051772812   -1.5604151811
 14         -5.4410166211   -1.4010161701    4.4051662735   -1.5604131883
 15         -5.4410195614   -1.4010222805    4.4051604845   -1.5604121539
 16         -5.4410211001   -1.4010255150    4.4051574379   -1.5604116169
 17         -5.4410219052   -1.4010272285    4.4051558332   -1.5604113379
 18         -5.4410223266   -1.4010281369    4.4051549874   -1.5604111930
 19         -5.4410225472   -1.4010286190    4.4051545411   -1.5604111177
 20         -5.4410226626   -1.4010288749    4.4051543055   -1.5604110786
 21         -5.4410227231   -1.4010290110    4.4051541810   -1.5604110582
Atom SCF converged after  21 iterations to a total energy of     -5.44102272

Determining parallel strategy ...
... using space-filling curve
... NGWF load balancing: max     64;  min     64;  average     64
... Projector load balancing: max    128;  min    128;  average    128
... done
Calculating Ewald energy ...
              Ewald: real-space energy =    9485.205062
        Ewald: reciprocal-space energy =       0.175253
         Ewald: (sum_charge)**2 Energy =   11111.165858
         Ewald: (sum_charge**2) Energy =     878.414789
                          Ewald Energy =   -2504.200333
Basis initialisation ...... NGWF spheres initialised
... Projector spheres initialised
... NGWF tight boxes initialised
... Projector tight boxes initialised
... Tight-boxes gathered
... NGWF basis size (local,global):     693556  27898848
... PAW projector initialisation
... done

============================= Charge Augmentation ==============================
                           Aug box size:   11 x  11 x  11
================================================================================

========================== Sparse matrix information ===========================
                        Overlap matrix filling:  42.19%
                        Density kernel filling: 100.00%
              NGWF-Proj overlap matrix filling:  12.19%
                    Aug Overlap matrix filling:  47.03%
                    Hamiltonian matrix filling:  47.03%
                  NGWF diagonal matrix filling:   0.16%
                             KS matrix filling: 100.00% 
                           KSKS matrix filling: 100.00% 
================================================================================

Sparse matrix initialisation ... done
NGWF initialisation ...... done
============ Calculation of NGWF S^-1 using Hotelling algorithm ================ 
         Iteration  |  Frobenius norm and Maximum abs value    (of I-S*S_n^-1)   
               1       0.49038421E+02     0.97573951E+00
               2       0.47794919E+02     0.95330569E+00
               3       0.45932174E+02     0.91302051E+00
               4       0.43522082E+02     0.84628462E+00
               5       0.40643142E+02     0.74729563E+00
               6       0.37306517E+02     0.67765006E+00
               7       0.33841624E+02     0.63030212E+00
               8       0.30536662E+02     0.59069672E+00
               9       0.26992102E+02     0.54710969E+00
              10       0.22501446E+02     0.47845682E+00
              11       0.16647262E+02     0.36929562E+00
              12       0.98981307E+01     0.22513299E+00
              13       0.40062612E+01     0.89236175E-01
              14       0.78406788E+00     0.16071387E-01
              15       0.35576441E-01     0.63778896E-03
              16       0.92707763E-04     0.12787391E-05
              17       0.94647896E-09     0.80359053E-11
              18       0.74006345E-13     0.49960036E-14
================================================================================
Calculating core density ...
================================= Core Density =================================
               Core den box size:   21 x  21 x  21
================================================================================
 ... done
Up spin density kernel initialisation ...... done

Writing density kernel to file "3.5418184_GO_manual_4x64graphite.dkn" ... done

>>> Optimising kernel for current NGWFs:

--------------------------- Ensemble-DFT optimisation --------------------------
Running ScaLAPACK on   40 processor(s).

--------------------------------------------------------------------------------
  Iter                              Commutator    Free_energy(A=E-TS)     DeltaA
#    0                          0.000030303586   -3650.87390682640398  -3.65E+03

Step                       =       0.381966011250
Energy                     =   -3650.873875366864
Entropy (-TS)              =      -0.000031459512
Free energy (A=E-TS)       =   -3650.873906826404
Est. 0K Energy 0.5*(E+A)   =   -3650.873891096634
Residual Non-orthogonality =       0.000000000000
Residual N_electrons       =      -0.000000000028

Spin          Integrated_Ne            Fermi_level     Delta_Fermi_level
   1      2560.000000000148         0.187606352148              1.88E-01

                           Spin 1          
     Orb      H-eigenvalues     Occupancies
       1 |    -0.5345301628    1.0000000000 | 
                          ------
    1276 |     0.1534697755    0.9999791780 | 
    1277 |     0.1540772419    0.9999747752 | 
    1278 |     0.1540952239    0.9999746315 | 
    1279 |     0.1544226467    0.9999718683 | 
    1280 |     0.1550458177    0.9999657505 | 
                 - Gap at zero temperature -
    1281 |     0.2228055842    0.0000148865 | 
    1282 |     0.2228145855    0.0000148443 | 
    1283 |     0.2228558821    0.0000146520 | 
    1284 |     0.2230009404    0.0000139960 | 
    1285 |     0.2230172684    0.0000139240 | 
                          ------
    2560 |     1.0200902453    0.0000000000 | 

                       |  Abs_value |  Threshold | Converged
     Delta_Free_energy |   3.65E+03 |   1.00E-06 |        No
     Delta_Energy      |   3.65E+03 |   1.00E-04 |        No
     Delta_Entropy     |   3.15E-05 |   1.00E-04 |       Yes
     Commutator        |   3.03E-05 |   1.00E-05 |        No
     Delta_Fermi_level |   1.88E-01 |   1.00E-03 |        No

  Line search of the free energy minimum:
  Step_type        Step             Free_energy   Predicted_free_energy
.   Initial    0.000000    -3650.87390682640398
.    Trial1    0.381966    -3650.87489414866695
.    Trial2    0.618034    -3650.87491520193453
. Quadratic    0.511043    -3650.87496129649162    -3650.87496142610053

--------------------------------------------------------------------------------
  Iter                              Commutator    Free_energy(A=E-TS)     DeltaA
#    1                          0.000017522135   -3650.87496129649162  -1.05E-03

Step                       =       0.511042803574
Energy                     =   -3650.874930011929
Entropy (-TS)              =      -0.000031284559
Free energy (A=E-TS)       =   -3650.874961296492
Est. 0K Energy 0.5*(E+A)   =   -3650.874945654210
Residual Non-orthogonality =       0.000000000000
Residual N_electrons       =      -0.000000000004

Spin          Integrated_Ne            Fermi_level     Delta_Fermi_level
   1      2560.000000000021         0.187439700740             -1.67E-04

                           Spin 1          
     Orb      H-eigenvalues     Occupancies
       1 |    -0.5358628318    1.0000000000 | 
                          ------
    1276 |     0.1533526282    0.9999788499 | 
    1277 |     0.1538259188    0.9999754406 | 
    1278 |     0.1538420164    0.9999753155 | 
    1279 |     0.1543074417    0.9999714076 | 
    1280 |     0.1547945884    0.9999666531 | 
                 - Gap at zero temperature -
    1281 |     0.2226183383    0.0000149837 | 
    1282 |     0.2226253531    0.0000149505 | 
    1283 |     0.2226738016    0.0000147235 | 
    1284 |     0.2228034704    0.0000141328 | 
    1285 |     0.2228150348    0.0000140813 | 
                          ------
    2560 |     1.0194802578    0.0000000000 | 

                       |  Abs_value |  Threshold | Converged
     Delta_Free_energy |   1.05E-03 |   1.00E-06 |        No
     Delta_Energy      |   1.05E-03 |   1.00E-04 |        No
     Delta_Entropy     |   1.75E-07 |   1.00E-04 |       Yes
     Commutator        |   1.75E-05 |   1.00E-05 |        No
     Delta_Fermi_level |   1.67E-04 |   1.00E-03 |       Yes

  Line search of the free energy minimum:
  Step_type        Step             Free_energy   Predicted_free_energy
.   Initial    0.000000    -3650.87496129649162
.    Trial1    0.511043    -3650.87499861870401
.    Trial2    0.697808    -3650.87450012259205
. Quadratic    0.264814    -3650.87523717097429    -3650.87523686836539

--------------------------------------------------------------------------------
  Iter                              Commutator    Free_energy(A=E-TS)     DeltaA
#    2                          0.000010284646   -3650.87523717097429  -2.76E-04

Step                       =       0.264813768525
Energy                     =   -3650.875205955065
Entropy (-TS)              =      -0.000031216133
Free energy (A=E-TS)       =   -3650.875237170974
Est. 0K Energy 0.5*(E+A)   =   -3650.875221563020
Residual Non-orthogonality =       0.000000000000
Residual N_electrons       =       0.000000000224

Spin          Integrated_Ne            Fermi_level     Delta_Fermi_level
   1      2559.999999998807         0.187391900903             -4.78E-05

                           Spin 1          
     Orb      H-eigenvalues     Occupancies
       1 |    -0.5362053475    1.0000000000 | 
                          ------
    1276 |     0.1532740863    0.9999790543 | 
    1277 |     0.1537856572    0.9999753821 | 
    1278 |     0.1538022063    0.9999752531 | 
    1279 |     0.1542261253    0.9999717086 | 
    1280 |     0.1547519871    0.9999665983 | 
                 - Gap at zero temperature -
    1281 |     0.2225919534    0.0000148827 | 
    1282 |     0.2225992106    0.0000148486 | 
    1283 |     0.2226460974    0.0000146304 | 
    1284 |     0.2227819812    0.0000140159 | 
    1285 |     0.2227931509    0.0000139666 | 
                          ------
    2560 |     1.0193147760    0.0000000000 | 

                       |  Abs_value |  Threshold | Converged
     Delta_Free_energy |   2.76E-04 |   1.00E-06 |        No
     Delta_Energy      |   2.76E-04 |   1.00E-04 |        No
     Delta_Entropy     |   6.84E-08 |   1.00E-04 |       Yes
     Commutator        |   1.03E-05 |   1.00E-05 |        No
     Delta_Fermi_level |   4.78E-05 |   1.00E-03 |       Yes

  Line search of the free energy minimum:
  Step_type        Step             Free_energy   Predicted_free_energy
.   Initial    0.000000    -3650.87523717097429
.    Trial1    0.264814    -3650.87532979339358
.    Trial2    0.545630    -3650.87531344076706
. Quadratic    0.366284    -3650.87533748295073    -3650.87533749235581

--------------------------------------------------------------------------------
  Iter                              Commutator    Free_energy(A=E-TS)     DeltaA
#    3                          0.000007211529   -3650.87533748295073  -1.00E-04

Step                       =       0.366283562262
Energy                     =   -3650.875306335796
Entropy (-TS)              =      -0.000031147344
Free energy (A=E-TS)       =   -3650.875337482951
Est. 0K Energy 0.5*(E+A)   =   -3650.875321909373
Residual Non-orthogonality =       0.000000000000
Residual N_electrons       =       0.000000000189

Spin          Integrated_Ne            Fermi_level     Delta_Fermi_level
   1      2559.999999998990         0.187342710586             -4.92E-05

                           Spin 1          
     Orb      H-eigenvalues     Occupancies
       1 |    -0.5365460355    1.0000000000 | 
                          ------
    1276 |     0.1532084194    0.9999791630 | 
    1277 |     0.1537324759    0.9999754131 | 
    1278 |     0.1537495319    0.9999752803 | 
    1279 |     0.1541585725    0.9999718722 | 
    1280 |     0.1546974340    0.9999666548 | 
                 - Gap at zero temperature -
    1281 |     0.2225554274    0.0000148233 | 
    1282 |     0.2225629225    0.0000147882 | 
    1283 |     0.2226090916    0.0000145742 | 
    1284 |     0.2227474758    0.0000139511 | 
    1285 |     0.2227584473    0.0000139028 | 
                          ------
    2560 |     1.0191627868    0.0000000000 | 

                       |  Abs_value |  Threshold | Converged
     Delta_Free_energy |   1.00E-04 |   1.00E-06 |        No
     Delta_Energy      |   1.00E-04 |   1.00E-04 |        No
     Delta_Entropy     |   6.88E-08 |   1.00E-04 |       Yes
     Commutator        |   7.21E-06 |   1.00E-05 |       Yes
     Delta_Fermi_level |   4.92E-05 |   1.00E-03 |       Yes

  Line search of the free energy minimum:
  Step_type        Step             Free_energy   Predicted_free_energy
.   Initial    0.000000    -3650.87533748295073
.    Trial1    0.366284    -3650.87537557543919
.    Trial2    0.608342    -3650.87530559561219
. Quadratic    0.263612    -3650.87538239426158    -3650.87538238714069

--------------------------------------------------------------------------------
  Iter                              Commutator    Free_energy(A=E-TS)     DeltaA
#    4                          0.000004728254   -3650.87538239426158  -4.49E-05

Step                       =       0.263612105166
Energy                     =   -3650.875351276789
Entropy (-TS)              =      -0.000031117146
Free energy (A=E-TS)       =   -3650.875382394262
[...]
 C   160 -- C   385       -0.10      5.37000
 C   159 -- C   384       -0.10      5.37000
 C   158 -- C   383       -0.10      5.37000
 C   157 -- C   382       -0.10      5.37000
 C   156 -- C   381       -0.10      5.37000
 C   155 -- C   355       -0.10      5.37000
 C   154 -- C   354       -0.10      5.37000
 C   153 -- C   353       -0.10      5.37000
 C   152 -- C   352       -0.10      5.37000
 C   151 -- C   351       -0.10      5.37000
 C   140 -- C   335       -0.10      5.37000
 C   139 -- C   334       -0.10      5.37000
 C   138 -- C   333       -0.10      5.37000
 C   137 -- C   332       -0.10      5.37000
 C   136 -- C   331       -0.10      5.37000
 C   115 -- C   325       -0.10      5.37000
 C   114 -- C   324       -0.10      5.37000
 C   113 -- C   323       -0.10      5.37000
 C   112 -- C   322       -0.10      5.37000
 C   111 -- C   321       -0.10      5.37000
 C   219 -- C   569       -0.09      5.37202
 C   218 -- C   568       -0.09      5.37202
 C   217 -- C   567       -0.09      5.37202
 C   216 -- C   566       -0.09      5.37202
 C   285 -- C   580       -0.09      5.37202
 C   284 -- C   579       -0.09      5.37202
 C   283 -- C   578       -0.09      5.37202
 C   282 -- C   577       -0.09      5.37202
 C   281 -- C   576       -0.09      5.37202
 C   260 -- C   605       -0.09      5.37202
 C   259 -- C   604       -0.09      5.37202
 C   258 -- C   603       -0.09      5.37202
 C   257 -- C   602       -0.09      5.37202
 C   256 -- C   601       -0.09      5.37202
 C   250 -- C   540       -0.09      5.37202
 C   249 -- C   539       -0.09      5.37202
 C   248 -- C   538       -0.09      5.37202
 C   247 -- C   537       -0.09      5.37202
 C   246 -- C   536       -0.09      5.37202
 C   220 -- C   570       -0.09      5.37202
 C   220 -- C   515       -0.09      5.37202
 C   219 -- C   514       -0.09      5.37202
 C   218 -- C   513       -0.09      5.37202
 C   217 -- C   512       -0.09      5.37202
 C   216 -- C   511       -0.09      5.37202
 C    95 -- C   425       -0.09      5.37202
 C    94 -- C   424       -0.09      5.37202
 C    93 -- C   423       -0.09      5.37202
 C   195 -- C   540       -0.09      5.37202
 C   195 -- C   500       -0.09      5.37202
 C   194 -- C   539       -0.09      5.37202
 C    92 -- C   422       -0.09      5.37202
 C   194 -- C   499       -0.09      5.37202
 C   193 -- C   538       -0.09      5.37202
 C   193 -- C   498       -0.09      5.37202
 C   192 -- C   537       -0.09      5.37202
 C    91 -- C   421       -0.09      5.37202
 C   192 -- C   497       -0.09      5.37202
 C   191 -- C   536       -0.09      5.37202
 C   191 -- C   496       -0.09      5.37202
 C    85 -- C   355       -0.09      5.37202
 C   180 -- C   515       -0.09      5.37202
 C    84 -- C   354       -0.09      5.37202
 C   179 -- C   514       -0.09      5.37202
 C    83 -- C   353       -0.09      5.37202
 C   178 -- C   513       -0.09      5.37202
 C   177 -- C   512       -0.09      5.37202
 C    82 -- C   352       -0.09      5.37202
 C   176 -- C   511       -0.09      5.37202
 C    81 -- C   351       -0.09      5.37202
 C   120 -- C   395       -0.09      5.37202
 C    55 -- C   385       -0.09      5.37202
 C   119 -- C   394       -0.09      5.37202
 C   118 -- C   393       -0.09      5.37202
 C   117 -- C   392       -0.09      5.37202
 C    54 -- C   384       -0.09      5.37202
 C   116 -- C   391       -0.09      5.37202
 C    53 -- C   383       -0.09      5.37202
 C    52 -- C   382       -0.09      5.37202
 C    51 -- C   381       -0.09      5.37202
 C   205 -- C   550       -0.09      5.37202
 C   204 -- C   549       -0.09      5.37202
 C   203 -- C   548       -0.09      5.37202
 C   202 -- C   547       -0.09      5.37202
 C   201 -- C   546       -0.09      5.37202
 C    95 -- C   365       -0.09      5.37202
 C    94 -- C   364       -0.09      5.37202
 C    93 -- C   363       -0.10      5.37202
 C    92 -- C   362       -0.09      5.37202
 C    91 -- C   361       -0.10      5.37202
 C    65 -- C   395       -0.09      5.37202
 C    64 -- C   394       -0.09      5.37202
 C    63 -- C   393       -0.10      5.37202
 C    30 -- C   355       -0.09      5.37202
 C    62 -- C   392       -0.09      5.37202
 C    61 -- C   391       -0.10      5.37202
 C    29 -- C   354       -0.09      5.37202
 C   260 -- C   550       -0.09      5.37202
 C   259 -- C   549       -0.09      5.37202
 C    28 -- C   353       -0.10      5.37202
 C   258 -- C   548       -0.09      5.37202
 C   257 -- C   547       -0.09      5.37202
 C   256 -- C   546       -0.09      5.37202
 C    27 -- C   352       -0.09      5.37202
 C    26 -- C   351       -0.10      5.37202
 C    55 -- C   335       -0.09      5.37202
 C    54 -- C   334       -0.09      5.37202
 C    53 -- C   333       -0.09      5.37202
 C   230 -- C   580       -0.09      5.37202
 C   230 -- C   525       -0.09      5.37202
 C   229 -- C   579       -0.09      5.37202
 C   229 -- C   524       -0.09      5.37202
 C   228 -- C   578       -0.09      5.37202
 C    52 -- C   332       -0.09      5.37202
 C   228 -- C   523       -0.09      5.37202
 C   227 -- C   577       -0.09      5.37202
 C   227 -- C   522       -0.09      5.37202
 C   226 -- C   576       -0.09      5.37202
 C   226 -- C   521       -0.09      5.37202
 C    51 -- C   331       -0.09      5.37202
 C    23 -- C   478       -0.09      5.37202
 C    49 -- C   469       -0.09      5.37202
 C    11 -- C   331       -0.09      5.37202
 C    48 -- C   468       -0.09      5.37202
 C    47 -- C   467       -0.09      5.37202
 C    22 -- C   477       -0.09      5.37202
 C    46 -- C   466       -0.09      5.37202
 C    21 -- C   476       -0.09      5.37202
 C    40 -- C   365       -0.09      5.37202
 C    39 -- C   364       -0.09      5.37202
 C    38 -- C   363       -0.09      5.37202
 C    37 -- C   362       -0.09      5.37202
 C    36 -- C   361       -0.09      5.37202
 C    15 -- C   335       -0.09      5.37202
 C    65 -- C   345       -0.09      5.37202
 C    64 -- C   344       -0.09      5.37202
 C    63 -- C   343       -0.09      5.37202
 C    30 -- C   325       -0.09      5.37202
 C    14 -- C   334       -0.09      5.37202
 C    62 -- C   342       -0.09      5.37202
 C    61 -- C   341       -0.09      5.37202
 C    29 -- C   324       -0.09      5.37202
 C    28 -- C   323       -0.09      5.37202
 C    13 -- C   333       -0.09      5.37202
 C    27 -- C   322       -0.09      5.37202
 C    26 -- C   321       -0.09      5.37202
 C    25 -- C   480       -0.09      5.37202
 C    12 -- C   332       -0.09      5.37202
 C    24 -- C   479       -0.09      5.37202
 C    50 -- C   470       -0.09      5.37202
 C    24 -- C   449       -0.09      5.37202
 C     6 -- C   416       -0.09      5.37202
 C    23 -- C   448       -0.09      5.37202
 C    22 -- C   447       -0.09      5.37202
 C    10 -- C   470       -0.09      5.37202
 C     5 -- C   450       -0.09      5.37202
 C    21 -- C   446       -0.09      5.37202
 C    10 -- C   420       -0.09      5.37202
 C     9 -- C   469       -0.09      5.37202
 C     9 -- C   419       -0.09      5.37202
 C     8 -- C   468       -0.09      5.37202
 C     4 -- C   449       -0.09      5.37202
 C   150 -- C   440       -0.09      5.37202
 C   149 -- C   439       -0.09      5.37202
 C   148 -- C   438       -0.09      5.37202
 C   147 -- C   437       -0.09      5.37202
 C     8 -- C   418       -0.09      5.37202
 C   146 -- C   436       -0.09      5.37202
 C     2 -- C   447       -0.09      5.37202
 C   135 -- C   460       -0.09      5.37202
 C     7 -- C   467       -0.09      5.37202
 C   134 -- C   459       -0.09      5.37202
 C   133 -- C   458       -0.09      5.37202
 C   132 -- C   457       -0.09      5.37202
 C   131 -- C   456       -0.09      5.37202
 C     7 -- C   417       -0.09      5.37202
 C     1 -- C   446       -0.09      5.37202
 C     6 -- C   466       -0.09      5.37202
 C    25 -- C   450       -0.09      5.37202
 C     3 -- C   448       -0.09      5.37202
 C   106 -- C   436       -0.09      5.37202
 C   106 -- C   376       -0.09      5.37202
 C    80 -- C   410       -0.09      5.37202
 C    79 -- C   409       -0.09      5.37202
 C    78 -- C   408       -0.09      5.37202
 C    77 -- C   407       -0.09      5.37202
 C    76 -- C   406       -0.09      5.37202
 C   135 -- C   410       -0.09      5.37202
 C   134 -- C   409       -0.09      5.37202
 C   133 -- C   408       -0.09      5.37202
 C   132 -- C   407       -0.09      5.37202
 C   131 -- C   406       -0.09      5.37202
 C   110 -- C   440       -0.09      5.37202
 C   110 -- C   380       -0.09      5.37202
 C   109 -- C   439       -0.09      5.37202
 C   109 -- C   379       -0.09      5.37202
 C   108 -- C   438       -0.09      5.37202
 C   108 -- C   378       -0.09      5.37202
 C   107 -- C   437       -0.09      5.37202
 C   107 -- C   377       -0.09      5.37202
 C   215 -- C   635       -0.10      5.38000
 C   214 -- C   634       -0.10      5.38000
 C   213 -- C   633       -0.10      5.38000
 C   212 -- C   632       -0.10      5.38000
 C   211 -- C   631       -0.10      5.38000
 C   190 -- C   620       -0.10      5.38000
 C   189 -- C   619       -0.10      5.38000
 C   188 -- C   618       -0.10      5.38000
 C   187 -- C   617       -0.10      5.38000
 C   186 -- C   616       -0.10      5.38000
 C   175 -- C   595       -0.10      5.38000
 C   174 -- C   594       -0.10      5.38000
 C   173 -- C   593       -0.10      5.38000
 C   172 -- C   592       -0.10      5.38000
 C   171 -- C   591       -0.10      5.38000
 C   245 -- C   640       -0.10      5.38000
 C   244 -- C   639       -0.10      5.38000
 C   243 -- C   638       -0.10      5.38000
 C   242 -- C   637       -0.10      5.38000
 C   241 -- C   636       -0.10      5.38000
==================================================


=================== Orbital energy and occupancy information ===================

      Total number of orbitals:    2560
        Occupancy sum (kernel):    1280.000000000
   Occupancy sum (eigenvalues):    1280.000000000
                 HOMO-LUMO gap:       0.000054944 Eh
                 Mid-gap level:       0.271017029 Eh

                        Orbital | Energy (Eh) | Occupancy
                            1    -0.482929825   1.0000000
                        .......   ...........   .........
                         1272     0.201423476   0.9999884
                         1273     0.201840743   0.9999867
                         1274     0.201895142   0.9999865
                         1275     0.204975821   0.9999643
                         1276     0.204979742   0.9999642
                         1277     0.205440075   0.9999586
                         1278     0.205444019   0.9999586
                         1279     0.205990885   0.9999508
                         1280     0.206448753   0.9999431
                         1281     0.270989557   0.0000247
                        ....... -- gap at 0K -- .........
                         1282     0.271044501   0.0000243
                         1283     0.271238940   0.0000228
                         1284     0.271293587   0.0000225
                         1285     0.271627150   0.0000202
                         1286     0.271638636   0.0000202
                         1287     0.271889145   0.0000186
                         1288     0.271900923   0.0000186
                         1289     0.271933593   0.0000183
                         1290     0.271985303   0.0000180
                         1291     0.272066105   0.0000176
                        .......   ...........   .........
                         2560     1.128469008   0.0000000

================================================================================

===================== Writing canonical molecular orbitals =====================
| Orbital  Energy (eV)  Norm     |
| HOMO      7.37400106  1.000000 | Writing "3.5418184_GO_manual_4x64graphite_HOMO.cube" ... done
Writing "3.5418184_GO_manual_4x64graphite_HOMO.dx" ... done
| LUMO      7.37549617  1.000000 | Writing "3.5418184_GO_manual_4x64graphite_LUMO.cube" ... done
Writing "3.5418184_GO_manual_4x64graphite_LUMO.dx" ... done
================================================================================
 
===================== Density of States (DOS) calculation ======================
Writing "3.5418184_GO_manual_4x64graphite_DOS.txt" ...  done
================================================================================
 
Writing bands to file "3.5418184_GO_manual_4x64graphite.val_bands" ... done
 
================ Projected Density of States (pDOS) calculation ================
 
Constructing AM resolved functions  ...... done
Writing NGWF plot files in formats: CUBE DX ...  done
 
Performing overlap integrals ...  done
 
Computing pDOS weights ...  done
 
All bands spilling parameter =   3.38 %
Occupancy-weighted spilling parameter =   0.89 %
 
 => Outputting data for OptaDOS <=
 
Writing pDOS weights to file "3.5418184_GO_manual_4x64graphite.val_pdos_bin" ... done
 
Writing band gradients to file "3.5418184_GO_manual_4x64graphite.val_dome_bin" ... done
 
Writing Castep output cell file to "3.5418184_GO_manual_4x64graphite-out.cell" ... done
 
 => Computing Gaussian smeared pDOS <= 
Writing "3.5418184_GO_manual_4x64graphite_PDOS.txt" ...  done
 
 => Computing Occupancy-weighted Gaussian smeared pDOS <= 
Writing "3.5418184_GO_manual_4x64graphite_occ_PDOS.txt" ...  done
  => Band centres: 
 S band centre of group 1:  -15.567350 eV
 P band centre of group 1:   -8.449052 eV
  Band centres done. <=
  => Integrated number of electrons in each AM band: 
 S num electrons of group 1:  574.120039
 P num electrons of group 1: 1962.990834
  Integrated number of electrons done. <=
================================================================================

------------------------------ TIMING INFORMATION ------------------------------
AVERAGE TIME:    3383.018s on     40 node(s)                                    
TOTAL TIME:      3383.019s on     40 node(s)                                    
================= AVERAGE TIMINGS FROM ALL NODES (CUMULATIVE) ==================
|| TAG                                    #calls    cpu time   %total  Gflops ||
|| work_imbalance                       :     1        0.00s   0.000%  ------ ||
|| paw_tcore_density                    :     1        0.01s   0.000%  ------ ||
|| paw_tcore_hartree_on_grid            :     1        0.01s   0.000%  ------ ||
|| paw_sphere_density_on_grid           :     1        0.01s   0.000%  ------ ||
|| sparse_set_to_garbage                :   147        0.02s   0.001%  ------ ||
|| paw_dij_hartree                      :   307        0.04s   0.001%  ------ ||
|| pseudo_make_structure_factor         :     1        0.06s   0.002%  ------ ||
|| basis_extract_function_from_box      :  1664        0.07s   0.002%  ------ ||
|| paw_species_calc_proj_prec_mat       :     1        0.12s   0.004%  ------ ||
|| density_init_guess_real              :     1        0.17s   0.005%  ------ ||
|| paw_dataset_init                     :     1        0.19s   0.005%  ------ ||
|| ngwfs_initialise_from_radial         :     2        0.67s   0.020%  ------ ||
|| restart_kernel_write                 :    14        0.72s   0.021%  ------ ||
|| sparse_init                          :     1        0.94s   0.028%  ------ ||
|| dense_normal_eigensolve              :     1        1.08s   0.032%  ------ ||
|| hartree_on_grid                      :   231        1.20s   0.035%  ------ ||
|| projectors_init_fftbox_recip         :   131        2.54s   0.075%  ------ ||
|| ewald_calculate_energy               :     1        2.89s   0.085%  ------ ||
|| fourier_apply_box_pair               :  2464        4.08s   0.121% 560.235 ||
|| basis_copy_function_to_box           : 21888        4.74s   0.140%  ------ ||
|| augmentation_screen_dij              :   236        5.27s   0.156%  ------ ||
|| sw_init                              :     1        6.74s   0.199%  ------ ||
|| sparse_embed_hotelling_invert_embed  :    25        7.18s   0.212%  ------ ||
|| ngwf_gradient_coeffs                 :    13        9.51s   0.281%  ------ ||
|| fourier_apply_cell_backward          :  7132       13.40s   0.396%  66.233 ||
|| sparse_trace                         :  2782       13.47s   0.398%  ------ ||
|| fourier_apply_cell_forward           :  6671       15.05s   0.445%  55.145 ||
|| cell_grid_extract_box_real           :  9228       15.14s   0.447%  ------ ||
|| cell_grid_deposit_box_real           : 29744       18.94s   0.560%  ------ ||
|| paw_dij_xc                           :   307       25.73s   0.761%  ------ ||
|| aug_nonlocal_mat                     :   294       35.25s   1.042%  ------ ||
|| density_fftbox_deposit_to_cell       : 14784       38.12s   1.127%  ------ ||
|| augmentation_density_on_grid         :   231       41.79s   1.235%  ------ ||
|| hamiltonian_energy_components        :     3       47.79s   1.413%  ------ ||
|| function_ops_brappd_ketppd           :    52       48.96s   1.447%  ------ ||
|| eigenstates_pdos                     :     1       53.93s   1.594%  ------ ||
|| eigenstates_calculate                :     1       58.19s   1.720%  ------ ||
|| projectors_func_ovlp_box             :    26       58.27s   1.722%  ------ ||
|| xc_energy_potential                  :   230       67.78s   2.003%  ------ ||
|| nlxc_vdw_energy                      :   460       67.81s   2.004%  ------ ||
|| integrals_kinetic                    :    25       83.31s   2.462%  ------ ||
|| dense_eigensolve                     :   202      101.39s   2.997%  ------ ||
|| properties_calculate                 :     1      104.83s   3.099%  ------ ||
|| potential_apply_to_ngwf_batch        :   288      112.25s   3.318%  ------ ||
|| sparse_product                       :  2816      114.44s   3.383%  ------ ||
|| restart_ngwfs_tightbox_output        :    12      131.22s   3.879%  ------ ||
|| basis_dot_function_with_box          : 6.880M     190.28s   5.625%  ------ ||
|| fourier_apply_box                    : 68976      214.32s   6.335% 977.914 ||
|| edft_diag_ngwf_ham                   :   201      224.80s   6.645%  ------ ||
|| projectors_gradient_batch            :    52      237.10s   7.008%  ------ ||
|| integrals_locpot_mat_els_batch       :   288      249.20s   7.366%  ------ ||
|| density_fftbox_interpolate_multiply  : 14784      286.59s   8.472%  ------ ||
|| projectors_grad_precond_batch        :    52      325.60s   9.625%  ------ ||
|| density_batch_interp_deposit         :   924      359.78s  10.635%  ------ ||
|| integrals_locpot_dbl_grid            :    72      362.76s  10.723%  ------ ||
|| edft_apply_smearing_operator         :   201      436.25s  12.895%  ------ ||
|| basis_add_function_to_box            : 19.56M     522.72s  15.451%  ------ ||
|| ngwf_gradient_build_batch            :    52      602.15s  17.799%  ------ ||
|| density_batch_row_sums               :   924      717.94s  21.222%  ------ ||
|| ngwf_gradient_batch                  :    52      800.41s  23.660%  ------ ||
|| ngwf_gradient_lnv                    :    13      825.68s  24.407%  ------ ||
|| density_on_dbl_grid                  :   231     1090.54s  32.236%  ------ ||
|| hamiltonian_lhxc_calculate           :   226     1183.23s  34.976%  ------ ||
|| edft_calculate                       :    13     1969.75s  58.225%  ------ ||
|| ngwf_cg_optimise                     :     1     3258.20s  96.311%  ------ ||
|| total_time                           :     1     3383.02s 100.000%  ------ ||
================================================================================
Overhead of generating timer report: 
- 0 ms averaging over threads,
- 5 ms ensuring consistency across MPI ranks,
- 0 ms printing in order.

Job completed: 21-02-2020 15:23 (-0000)

