 +---------------------------------------------------------------+
 |                                                               |
 |        ####### #     # ####### ####### ####### ######         |
 |        #     # ##    # #          #    #       #     #        |
 |        #     # # #   # #          #    #       #     #        |
 |        #     # #  #  # #####      #    #####   ######         |
 |        #     # #   # # #          #    #       #              |
 |        #     # #    ## #          #    #       #              |
 |        ####### #     # #######    #    ####### #              |
 |                                                               |
 |        Linear-Scaling Ab Initio Total Energy Program          |
 |                                                               |
 |          Release for academic collaborators of ODG            |
 |                                             Version 5.3.2.12  |
 |                                                               |
 +---------------------------------------------------------------+
 |                                                               |
 |  Authors:                                                     |
 |  Jacek Dziedzic, Peter D. Haynes, Nicholas D. M. Hine,        |
 |  Arash. A. Mostofi, Mike C. Payne and Chris-Kriton Skylaris   |
 |                                                               |
 |  Contributors:                                                |
 |  J. Aarons, L. Andrinopoulos, P. W. Avraam, R. A. Bell,       |
 |  A. Bhandari, G. A. Bramley, R. J. Charlton, S. J. Clark,     |
 |  R. J. Clements, G. C. Constantinescu, F. Corsetti,           |
 |  N. Corsini, O. Dieguez, S. M. M. Dubois, K. K. B. Duff,      |
 |  J. M. Escartin, A. Greco, H. Helal, Q. O. Hill, L. P. Lee,   |
 |  J.-H. Li, E. B. Linscott, G. Moynihan, D. D. O`Regan,        |
 |  O. K. Okan, M. J. S. Phipps, C. J. Pickard,                  |
 |  J. C. A. Prentice, M. I. J. Probert, L. E. Ratcliff,         |
 |  M. Robinson, A. Ruiz Serrano, J. S. Spencer, E. W. Tait,     |
 |  G. Teobaldi, D. Turban, V. Vitale, K. A. Wilkinson,          |
 |  C. Weber, J. C. Womack, N. Yeung and T. J. Zuehlsdorff       |
 |                                                               |
 |                                   Copyright (c) 2004-2020     |
 |                                                               |
 |  Please cite:                                                 |
 |  "Introducing ONETEP: Linear-scaling density functional       |
 |   simulations on parallel computers".                         |
 |   C.-K. Skylaris, P. D. Haynes, A. A. Mostofi, M. C. Payne.   |
 |   J. Chem. Phys. 122 084119 (2005).                           |
 |                                                               |
 |          in all publications arising from your use of ONETEP. |
 |                                                               |
 +---------------------------------------------------------------+
 |                                                               |
 |   ONETEP is based on developments described in the following  |
 |   publications:                                               |
 |                                                               |
 |  "Nonorthogonal generalized Wannier function pseudopotential  |
 |   plane-wave method".                                         |
 |   C.-K. Skylaris, A. A. Mostofi, P. D. Haynes, O. Dieguez,    |
 |   M. C. Payne.                                                |
 |   Phys. Rev. B 66 035119 (2002).                              |
 |                                                               |
 |  "Preconditioned iterative minimization for linear-scaling    |
 |   electronic structure calculations".                         |
 |   A. A. Mostofi, P. D. Haynes, C.-K. Skylaris, M. C. Payne.   |
 |   J. Chem. Phys. 119(17), pp.8842-8848 (2003).                |
 |                                                               |
 |  "Total-energy calculations on a real space grid with         |
 |   localized functions and a plane-wave basis".                |
 |   A. A. Mostofi, C.-K. Skylaris, P. D. Haynes, M. C. Payne.   |
 |   Comput. Phys. Commun. 147, pp.788-802 (2002).               |
 |                                                               |
 |  "Accurate kinetic energy evaluation in electronic structure  |
 |   calculations with localized functions on real space grids"  |
 |   C.-K. Skylaris, A. A. Mostofi, P. D. Haynes, C. J. Pickard, |
 |   M. C. Payne.                                                |
 |   Comput. Phys. Commun. 140, pp.315-322 (2001).               |
 |                                                               |
 |  "Accurate ionic forces and geometry optimization in linear-  |
 |   scaling density-functional theory with local orbitals"      |
 |   N. D. M. Hine, M. Robinson, P. D. Haynes, C.-K. Skylaris,   |
 |   M. C. Payne, and A. A. Mostofi.                             |
 |   Phys. Rev. B 83 195102 (2011).                              |
 |                                                               |
 +---------------------------------------------------------------+

Job started: 21-02-2020 14:35 (-0000)
 
Reading parameters from file "3.622312_GO_manual_4x64graphite.dat" ...

WARNING: "cutoff_energy" not specified, but "psinc_spacing" specified.
         Using the latter to set the KE cutoff energy to  732.32021eV,
         thus *overriding* the default.

... done

If your calculation crashes here, before "Checking processes and threads..."
is displayed, then your stack size is insufficient.
If so, use "ulimit -s unlimited" at runtime.
You can disable this check with "check_stack_size F".

Checking processes and threads...
   Determining the default number of threads...
      No default threads set at compilation time: defaulting to 1.
      OpenMP library call suggests 4 threads.
      Hybrid MPI-OpenMP compilation detected.
      Number of MPI processes > 1.
      OMP_NUM_THREADS environment variable present and
      its value matches the one obtained from the OpenMP library call.
      Using this value as default.
      Default threads: 4
      Default applies to threads_max and threads_num_fftboxes.
      Settings in the input file override this default.
   ... done

   Running with 40 MPI processes.
   There are 10 MPI processes running on the same node as the root process.
   Each MPI process is using: 
               1 threads for simulation cell FFTs.
               1 threads for parallel FFT box operations.
               4 threads for loops over batched FFT box operations.
               4 threads in other parallel regions.
... done

Basic input checks...
Resetting ngwf_cg_rotate to TRUE for EDFT calculations
... done

Reading geometry and species blocks from file "3.622312_GO_manual_4x64graphite.dat" ...
    
  PSINC grid spacing along a1 set to   0.511215680000a0 from input file.
  PSINC grid spacing along a2 set to   0.531284090000a0 from input file.
  PSINC grid spacing along a3 set to   0.507051230000a0 from input file.
  Number of PPD points along a3 set to 1.  This is 
  the default value, it may have been provided also in the input file.
... done
 Writing xyz coordinates to file "3.622312_GO_manual_4x64graphite.xyz" ... done


--------------------------------------------------------------------------------
---------------------------------- INPUT FILE ----------------------------------
--------------------------------------------------------------------------------

task : singlepoint                                                              
do_properties : true                                                            
dx_format T                                                                     
edft T                                                                          
output_detail VERBOSE                                                           
write_xyz T                                                                     
xc_functional VV10                                                              
PSINC_SPACING 0.51121568 0.53128409 0.50705123                                  
paw T                                                                           
pdos_max_l = 2                                                                  
dos_smear  0.1 eV                                                               
popn_calculate T                                                                
PDOS_PSEUDOATOMIC T                                                             
PDOS_REDUCE_SWS F                                                               
PDOS_CONSTRUCT_BASIS F                                                          
PDOS_LOWDIN T                                                                   
PDOS_ORTH_ATOM_BLOCKS F                                                         
PDOS_LCAO_OPTIMIZE F                                                            
pdos_optados_output T                                                           
homo_plot 0                                                                     
lumo_plot 0                                                                     
homo_dens_plot -1                                                               
lumo_dens_plot -1                                                               
%BLOCK SPECIES                                                                  
C C 6 4 9.0                                                                     
%ENDBLOCK SPECIES                                                               
%BLOCK SPECIES_POT                                                              
C "~/pp/paw/c_pbe_abinit.paw"                                                   
%ENDBLOCK SPECIES_POT                                                           
%BLOCK SPECIES_ATOMIC_SET                                                       
C "SOLVE conf=2s2 2p2"                                                          
%ENDBLOCK SPECIES_ATOMIC_SET                                                    
%BLOCK LATTICE_CART                                                             
32.21  0.00  0.00                                                               
0.00 18.59  0.00                                                                
0.00  0.00 68.45                                                                
%ENDBLOCK LATTICE_CART                                                          
%BLOCK POSITIONS_ABS                                                            
C  0.00  0.00  3.42                                                             
C  0.00  0.00 17.11                                                             
C  0.00  0.00 30.80                                                             
C  0.00  0.00 44.49                                                             
C  0.00  0.00 58.18                                                             
C  0.00  4.65  3.42                                                             
C  0.00  4.65 17.11                                                             
C  0.00  4.65 30.80                                                             
C  0.00  4.65 44.49                                                             
C  0.00  4.65 58.18                                                             
C  4.03  2.32  3.42                                                             
C  4.03  2.32 17.11                                                             
C  4.03  2.32 30.80                                                             
C  4.03  2.32 44.49                                                             
C  4.03  2.32 58.18                                                             
C  8.05  0.00  3.42                                                             
C  8.05  0.00 17.11                                                             
C  8.05  0.00 30.80                                                             
C  8.05  0.00 44.49                                                             
C  8.05  0.00 58.18                                                             
C  0.00  9.30  3.42                                                             
C  0.00  9.30 17.11                                                             
C  0.00  9.30 30.80                                                             
C  0.00  9.30 44.49                                                             
C  0.00  9.30 58.18                                                             
C  4.03  6.97  3.42                                                             
C  4.03  6.97 17.11                                                             
C  4.03  6.97 30.80                                                             
C  4.03  6.97 44.49                                                             
C  4.03  6.97 58.18                                                             
C  8.05  4.65  3.42                                                             
C  8.05  4.65 17.11                                                             
C  8.05  4.65 30.80                                                             
C  8.05  4.65 44.49                                                             
C  8.05  4.65 58.18                                                             
C 12.08  2.32  3.42                                                             
C 12.08  2.32 17.11                                                             
C 12.08  2.32 30.80                                                             
C 12.08  2.32 44.49                                                             
C 12.08  2.32 58.18                                                             
C 16.10  0.00  3.42                                                             
C 16.10  0.00 17.11                                                             
C 16.10  0.00 30.80                                                             
C 16.10  0.00 44.49                                                             
C 16.10  0.00 58.18                                                             
C  0.00 13.95  3.42                                                             
C  0.00 13.95 17.11                                                             
C  0.00 13.95 30.80                                                             
C  0.00 13.95 44.49                                                             
C  0.00 13.95 58.18                                                             
C  4.03 11.62  3.42                                                             
C  4.03 11.62 17.11                                                             
C  4.03 11.62 30.80                                                             
C  4.03 11.62 44.49                                                             
C  4.03 11.62 58.18                                                             
C  8.05  9.30  3.42                                                             
C  8.05  9.30 17.11                                                             
C  8.05  9.30 30.80                                                             
C  8.05  9.30 44.49                                                             
C  8.05  9.30 58.18                                                             
C 12.08  6.97  3.42                                                             
C 12.08  6.97 17.11                                                             
C 12.08  6.97 30.80                                                             
C 12.08  6.97 44.49                                                             
C 12.08  6.97 58.18                                                             
C 16.10  4.65  3.42                                                             
C 16.10  4.65 17.11                                                             
C 16.10  4.65 30.80                                                             
C 16.10  4.65 44.49                                                             
C 16.10  4.65 58.18                                                             
C 20.13  2.32  3.42                                                             
C 20.13  2.32 17.11                                                             
C 20.13  2.32 30.80                                                             
C 20.13  2.32 44.49                                                             
C 20.13  2.32 58.18                                                             
C 24.16  0.00  3.42                                                             
C 24.16  0.00 17.11                                                             
C 24.16  0.00 30.80                                                             
C 24.16  0.00 44.49                                                             
C 24.16  0.00 58.18                                                             
C  4.03 16.27  3.42                                                             
C  4.03 16.27 17.11                                                             
C  4.03 16.27 30.80                                                             
C  4.03 16.27 44.49                                                             
C  4.03 16.27 58.18                                                             
C  8.05 13.95  3.42                                                             
C  8.05 13.95 17.11                                                             
C  8.05 13.95 30.80                                                             
C  8.05 13.95 44.49                                                             
C  8.05 13.95 58.18                                                             
C 12.08 11.62  3.42                                                             
C 12.08 11.62 17.11                                                             
C 12.08 11.62 30.80                                                             
C 12.08 11.62 44.49                                                             
C 12.08 11.62 58.18                                                             
C 16.10  9.30  3.42                                                             
C 16.10  9.30 17.11                                                             
C 16.10  9.30 30.80                                                             
C 16.10  9.30 44.49                                                             
C 16.10  9.30 58.18                                                             
C 20.13  6.97  3.42                                                             
C 20.13  6.97 17.11                                                             
C 20.13  6.97 30.80                                                             
C 20.13  6.97 44.49                                                             
C 20.13  6.97 58.18                                                             
C 24.16  4.65  3.42                                                             
C 24.16  4.65 17.11                                                             
C 24.16  4.65 30.80                                                             
C 24.16  4.65 44.49                                                             
C 24.16  4.65 58.18                                                             
C 28.18  2.32  3.42                                                             
C 28.18  2.32 17.11                                                             
C 28.18  2.32 30.80                                                             
C 28.18  2.32 44.49                                                             
C 28.18  2.32 58.18                                                             
C 12.08 16.27  3.42                                                             
C 12.08 16.27 17.11                                                             
C 12.08 16.27 30.80                                                             
C 12.08 16.27 44.49                                                             
C 12.08 16.27 58.18                                                             
C 16.10 13.95  3.42                                                             
C 16.10 13.95 17.11                                                             
C 16.10 13.95 30.80                                                             
C 16.10 13.95 44.49                                                             
C 16.10 13.95 58.18                                                             
C 20.13 11.62  3.42                                                             
C 20.13 11.62 17.11                                                             
C 20.13 11.62 30.80                                                             
C 20.13 11.62 44.49                                                             
C 20.13 11.62 58.18                                                             
C 24.16  9.30  3.42                                                             
C 24.16  9.30 17.11                                                             
C 24.16  9.30 30.80                                                             
C 24.16  9.30 44.49                                                             
C 24.16  9.30 58.18                                                             
C 28.18  6.97  3.42                                                             
C 28.18  6.97 17.11                                                             
C 28.18  6.97 30.80                                                             
C 28.18  6.97 44.49                                                             
C 28.18  6.97 58.18                                                             
C 20.13 16.27  3.42                                                             
C 20.13 16.27 17.11                                                             
C 20.13 16.27 30.80                                                             
C 20.13 16.27 44.49                                                             
C 20.13 16.27 58.18                                                             
C 24.16 13.95  3.42                                                             
C 24.16 13.95 17.11                                                             
C 24.16 13.95 30.80                                                             
C 24.16 13.95 44.49                                                             
C 24.16 13.95 58.18                                                             
C 28.18 11.62  3.42                                                             
C 28.18 11.62 17.11                                                             
C 28.18 11.62 30.80                                                             
C 28.18 11.62 44.49                                                             
C 28.18 11.62 58.18                                                             
C 28.18 16.27  3.42                                                             
C 28.18 16.27 17.11                                                             
C 28.18 16.27 30.80                                                             
C 28.18 16.27 44.49                                                             
C 28.18 16.27 58.18                                                             
C  0.00  0.00 10.27                                                             
C  0.00  0.00 23.96                                                             
C  0.00  0.00 37.65                                                             
C  0.00  0.00 51.34                                                             
C  0.00  0.00 65.03                                                             
C  0.00  4.65 10.27                                                             
C  0.00  4.65 23.96                                                             
C  0.00  4.65 37.65                                                             
C  0.00  4.65 51.34                                                             
C  0.00  4.65 65.03                                                             
C  4.03  2.32 10.27                                                             
C  4.03  2.32 23.96                                                             
C  4.03  2.32 37.65                                                             
C  4.03  2.32 51.34                                                             
C  4.03  2.32 65.03                                                             
C  8.05  0.00 10.27                                                             
C  8.05  0.00 23.96                                                             
C  8.05  0.00 37.65                                                             
C  8.05  0.00 51.34                                                             
C  8.05  0.00 65.03                                                             
C  0.00  9.30 10.27                                                             
C  0.00  9.30 23.96                                                             
C  0.00  9.30 37.65                                                             
C  0.00  9.30 51.34                                                             
C  0.00  9.30 65.03                                                             
C  4.03  6.97 10.27                                                             
C  4.03  6.97 23.96                                                             
C  4.03  6.97 37.65                                                             
C  4.03  6.97 51.34                                                             
C  4.03  6.97 65.03                                                             
C  8.05  4.65 10.27                                                             
C  8.05  4.65 23.96                                                             
C  8.05  4.65 37.65                                                             
C  8.05  4.65 51.34                                                             
C  8.05  4.65 65.03                                                             
C 12.08  2.32 10.27                                                             
C 12.08  2.32 23.96                                                             
C 12.08  2.32 37.65                                                             
C 12.08  2.32 51.34                                                             
C 12.08  2.32 65.03                                                             
C 16.10  0.00 10.27                                                             
C 16.10  0.00 23.96                                                             
C 16.10  0.00 37.65                                                             
C 16.10  0.00 51.34                                                             
C 16.10  0.00 65.03                                                             
C  0.00 13.95 10.27                                                             
C  0.00 13.95 23.96                                                             
C  0.00 13.95 37.65                                                             
C  0.00 13.95 51.34                                                             
C  0.00 13.95 65.03                                                             
C  4.03 11.62 10.27                                                             
C  4.03 11.62 23.96                                                             
C  4.03 11.62 37.65                                                             
C  4.03 11.62 51.34                                                             
C  4.03 11.62 65.03                                                             
C  8.05  9.30 10.27                                                             
C  8.05  9.30 23.96                                                             
C  8.05  9.30 37.65                                                             
C  8.05  9.30 51.34                                                             
C  8.05  9.30 65.03                                                             
C 12.08  6.97 10.27                                                             
C 12.08  6.97 23.96                                                             
C 12.08  6.97 37.65                                                             
C 12.08  6.97 51.34                                                             
C 12.08  6.97 65.03                                                             
C 16.10  4.65 10.27                                                             
C 16.10  4.65 23.96                                                             
C 16.10  4.65 37.65                                                             
C 16.10  4.65 51.34                                                             
C 16.10  4.65 65.03                                                             
C 20.13  2.32 10.27                                                             
C 20.13  2.32 23.96                                                             
C 20.13  2.32 37.65                                                             
C 20.13  2.32 51.34                                                             
C 20.13  2.32 65.03                                                             
C 24.16  0.00 10.27                                                             
C 24.16  0.00 23.96                                                             
C 24.16  0.00 37.65                                                             
C 24.16  0.00 51.34                                                             
C 24.16  0.00 65.03                                                             
C  4.03 16.27 10.27                                                             
C  4.03 16.27 23.96                                                             
C  4.03 16.27 37.65                                                             
C  4.03 16.27 51.34                                                             
C  4.03 16.27 65.03                                                             
C  8.05 13.95 10.27                                                             
C  8.05 13.95 23.96                                                             
C  8.05 13.95 37.65                                                             
C  8.05 13.95 51.34                                                             
C  8.05 13.95 65.03                                                             
C 12.08 11.62 10.27                                                             
C 12.08 11.62 23.96                                                             
C 12.08 11.62 37.65                                                             
C 12.08 11.62 51.34                                                             
C 12.08 11.62 65.03                                                             
C 16.10  9.30 10.27                                                             
C 16.10  9.30 23.96                                                             
C 16.10  9.30 37.65                                                             
C 16.10  9.30 51.34                                                             
C 16.10  9.30 65.03                                                             
C 20.13  6.97 10.27                                                             
C 20.13  6.97 23.96                                                             
C 20.13  6.97 37.65                                                             
C 20.13  6.97 51.34                                                             
C 20.13  6.97 65.03                                                             
C 24.16  4.65 10.27                                                             
C 24.16  4.65 23.96                                                             
C 24.16  4.65 37.65                                                             
C 24.16  4.65 51.34                                                             
C 24.16  4.65 65.03                                                             
C 28.18  2.32 10.27                                                             
C 28.18  2.32 23.96                                                             
C 28.18  2.32 37.65                                                             
C 28.18  2.32 51.34                                                             
C 28.18  2.32 65.03                                                             
C 12.08 16.27 10.27                                                             
C 12.08 16.27 23.96                                                             
C 12.08 16.27 37.65                                                             
C 12.08 16.27 51.34                                                             
C 12.08 16.27 65.03                                                             
C 16.10 13.95 10.27                                                             
C 16.10 13.95 23.96                                                             
C 16.10 13.95 37.65                                                             
C 16.10 13.95 51.34                                                             
C 16.10 13.95 65.03                                                             
C 20.13 11.62 10.27                                                             
C 20.13 11.62 23.96                                                             
C 20.13 11.62 37.65                                                             
C 20.13 11.62 51.34                                                             
C 20.13 11.62 65.03                                                             
C 24.16  9.30 10.27                                                             
C 24.16  9.30 23.96                                                             
C 24.16  9.30 37.65                                                             
C 24.16  9.30 51.34                                                             
C 24.16  9.30 65.03                                                             
C 28.18  6.97 10.27                                                             
C 28.18  6.97 23.96                                                             
C 28.18  6.97 37.65                                                             
C 28.18  6.97 51.34                                                             
C 28.18  6.97 65.03                                                             
C 20.13 16.27 10.27                                                             
C 20.13 16.27 23.96                                                             
C 20.13 16.27 37.65                                                             
C 20.13 16.27 51.34                                                             
C 20.13 16.27 65.03                                                             
C 24.16 13.95 10.27                                                             
C 24.16 13.95 23.96                                                             
C 24.16 13.95 37.65                                                             
C 24.16 13.95 51.34                                                             
C 24.16 13.95 65.03                                                             
C 28.18 11.62 10.27                                                             
C 28.18 11.62 23.96                                                             
C 28.18 11.62 37.65                                                             
C 28.18 11.62 51.34                                                             
C 28.18 11.62 65.03                                                             
C 28.18 16.27 10.27                                                             
C 28.18 16.27 23.96                                                             
C 28.18 16.27 37.65                                                             
C 28.18 16.27 51.34                                                             
C 28.18 16.27 65.03                                                             
C  1.34  2.32  3.42                                                             
C  1.34  2.32 17.11                                                             
C  1.34  2.32 30.80                                                             
C  1.34  2.32 44.49                                                             
C  1.34  2.32 58.18                                                             
C  5.37  0.00  3.42                                                             
C  5.37  0.00 17.11                                                             
C  5.37  0.00 30.80                                                             
C  5.37  0.00 44.49                                                             
C  5.37  0.00 58.18                                                             
C  1.34  6.97  3.42                                                             
C  1.34  6.97 17.11                                                             
C  1.34  6.97 30.80                                                             
C  1.34  6.97 44.49                                                             
C  1.34  6.97 58.18                                                             
C  5.37  4.65  3.42                                                             
C  5.37  4.65 17.11                                                             
C  5.37  4.65 30.80                                                             
C  5.37  4.65 44.49                                                             
C  5.37  4.65 58.18                                                             
C  9.39  2.32  3.42                                                             
C  9.39  2.32 17.11                                                             
C  9.39  2.32 30.80                                                             
C  9.39  2.32 44.49                                                             
C  9.39  2.32 58.18                                                             
C 13.42  0.00  3.42                                                             
C 13.42  0.00 17.11                                                             
C 13.42  0.00 30.80                                                             
C 13.42  0.00 44.49                                                             
C 13.42  0.00 58.18                                                             
C  1.34 11.62  3.42                                                             
C  1.34 11.62 17.11                                                             
C  1.34 11.62 30.80                                                             
C  1.34 11.62 44.49                                                             
C  1.34 11.62 58.18                                                             
C  5.37  9.30  3.42                                                             
C  5.37  9.30 17.11                                                             
C  5.37  9.30 30.80                                                             
C  5.37  9.30 44.49                                                             
C  5.37  9.30 58.18                                                             
C  9.39  6.97  3.42                                                             
C  9.39  6.97 17.11                                                             
C  9.39  6.97 30.80                                                             
C  9.39  6.97 44.49                                                             
C  9.39  6.97 58.18                                                             
C 13.42  4.65  3.42                                                             
C 13.42  4.65 17.11                                                             
C 13.42  4.65 30.80                                                             
C 13.42  4.65 44.49                                                             
C 13.42  4.65 58.18                                                             
C 17.45  2.32  3.42                                                             
C 17.45  2.32 17.11                                                             
C 17.45  2.32 30.80                                                             
C 17.45  2.32 44.49                                                             
C 17.45  2.32 58.18                                                             
C 21.47  0.00  3.42                                                             
C 21.47  0.00 17.11                                                             
C 21.47  0.00 30.80                                                             
C 21.47  0.00 44.49                                                             
C 21.47  0.00 58.18                                                             
C  1.34 16.27  3.42                                                             
C  1.34 16.27 17.11                                                             
C  1.34 16.27 30.80                                                             
C  1.34 16.27 44.49                                                             
C  1.34 16.27 58.18                                                             
C  5.37 13.95  3.42                                                             
C  5.37 13.95 17.11                                                             
C  5.37 13.95 30.80                                                             
C  5.37 13.95 44.49                                                             
C  5.37 13.95 58.18                                                             
C  9.39 11.62  3.42                                                             
C  9.39 11.62 17.11                                                             
C  9.39 11.62 30.80                                                             
C  9.39 11.62 44.49                                                             
C  9.39 11.62 58.18                                                             
C 13.42  9.30  3.42                                                             
C 13.42  9.30 17.11                                                             
C 13.42  9.30 30.80                                                             
C 13.42  9.30 44.49                                                             
C 13.42  9.30 58.18                                                             
C 17.45  6.97  3.42                                                             
C 17.45  6.97 17.11                                                             
C 17.45  6.97 30.80                                                             
C 17.45  6.97 44.49                                                             
C 17.45  6.97 58.18                                                             
C 21.47  4.65  3.42                                                             
C 21.47  4.65 17.11                                                             
C 21.47  4.65 30.80                                                             
C 21.47  4.65 44.49                                                             
C 21.47  4.65 58.18                                                             
C 25.50  2.32  3.42                                                             
C 25.50  2.32 17.11                                                             
C 25.50  2.32 30.80                                                             
C 25.50  2.32 44.49                                                             
C 25.50  2.32 58.18                                                             
C 29.52  0.00  3.42                                                             
C 29.52  0.00 17.11                                                             
C 29.52  0.00 30.80                                                             
C 29.52  0.00 44.49                                                             
C 29.52  0.00 58.18                                                             
C  9.39 16.27  3.42                                                             
C  9.39 16.27 17.11                                                             
C  9.39 16.27 30.80                                                             
C  9.39 16.27 44.49                                                             
C  9.39 16.27 58.18                                                             
C 13.42 13.95  3.42                                                             
C 13.42 13.95 17.11                                                             
C 13.42 13.95 30.80                                                             
C 13.42 13.95 44.49                                                             
C 13.42 13.95 58.18                                                             
C 17.45 11.62  3.42                                                             
C 17.45 11.62 17.11                                                             
C 17.45 11.62 30.80                                                             
C 17.45 11.62 44.49                                                             
C 17.45 11.62 58.18                                                             
C 21.47  9.30  3.42                                                             
C 21.47  9.30 17.11                                                             
C 21.47  9.30 30.80                                                             
C 21.47  9.30 44.49                                                             
C 21.47  9.30 58.18                                                             
C 25.50  6.97  3.42                                                             
C 25.50  6.97 17.11                                                             
C 25.50  6.97 30.80                                                             
C 25.50  6.97 44.49                                                             
C 25.50  6.97 58.18                                                             
C 29.52  4.65  3.42                                                             
C 29.52  4.65 17.11                                                             
C 29.52  4.65 30.80                                                             
C 29.52  4.65 44.49                                                             
C 29.52  4.65 58.18                                                             
C 17.45 16.27  3.42                                                             
C 17.45 16.27 17.11                                                             
C 17.45 16.27 30.80                                                             
C 17.45 16.27 44.49                                                             
C 17.45 16.27 58.18                                                             
C 21.47 13.95  3.42                                                             
C 21.47 13.95 17.11                                                             
C 21.47 13.95 30.80                                                             
C 21.47 13.95 44.49                                                             
C 21.47 13.95 58.18                                                             
C 25.50 11.62  3.42                                                             
C 25.50 11.62 17.11                                                             
C 25.50 11.62 30.80                                                             
C 25.50 11.62 44.49                                                             
C 25.50 11.62 58.18                                                             
C 29.52  9.30  3.42                                                             
C 29.52  9.30 17.11                                                             
C 29.52  9.30 30.80                                                             
C 29.52  9.30 44.49                                                             
C 29.52  9.30 58.18                                                             
C 25.50 16.27  3.42                                                             
C 25.50 16.27 17.11                                                             
C 25.50 16.27 30.80                                                             
C 25.50 16.27 44.49                                                             
C 25.50 16.27 58.18                                                             
C 29.52 13.95  3.42                                                             
C 29.52 13.95 17.11                                                             
C 29.52 13.95 30.80                                                             
C 29.52 13.95 44.49                                                             
C 29.52 13.95 58.18                                                             
C  2.68  0.00 10.27                                                             
C  2.68  0.00 23.96                                                             
C  2.68  0.00 37.65                                                             
C  2.68  0.00 51.34                                                             
C  2.68  0.00 65.03                                                             
C  2.68  4.65 10.27                                                             
C  2.68  4.65 23.96                                                             
C  2.68  4.65 37.65                                                             
C  2.68  4.65 51.34                                                             
C  2.68  4.65 65.03                                                             
C  6.71  2.32 10.27                                                             
C  6.71  2.32 23.96                                                             
C  6.71  2.32 37.65                                                             
C  6.71  2.32 51.34                                                             
C  6.71  2.32 65.03                                                             
C 10.74  0.00 10.27                                                             
C 10.74  0.00 23.96                                                             
C 10.74  0.00 37.65                                                             
C 10.74  0.00 51.34                                                             
C 10.74  0.00 65.03                                                             
C  2.68  9.30 10.27                                                             
C  2.68  9.30 23.96                                                             
C  2.68  9.30 37.65                                                             
C  2.68  9.30 51.34                                                             
C  2.68  9.30 65.03                                                             
C  6.71  6.97 10.27                                                             
C  6.71  6.97 23.96                                                             
C  6.71  6.97 37.65                                                             
C  6.71  6.97 51.34                                                             
C  6.71  6.97 65.03                                                             
C 10.74  4.65 10.27                                                             
C 10.74  4.65 23.96                                                             
C 10.74  4.65 37.65                                                             
C 10.74  4.65 51.34                                                             
C 10.74  4.65 65.03                                                             
C 14.76  2.32 10.27                                                             
C 14.76  2.32 23.96                                                             
C 14.76  2.32 37.65                                                             
C 14.76  2.32 51.34                                                             
C 14.76  2.32 65.03                                                             
C 18.79  0.00 10.27                                                             
C 18.79  0.00 23.96                                                             
C 18.79  0.00 37.65                                                             
C 18.79  0.00 51.34                                                             
C 18.79  0.00 65.03                                                             
C  2.68 13.95 10.27                                                             
C  2.68 13.95 23.96                                                             
C  2.68 13.95 37.65                                                             
C  2.68 13.95 51.34                                                             
C  2.68 13.95 65.03                                                             
C  6.71 11.62 10.27                                                             
C  6.71 11.62 23.96                                                             
C  6.71 11.62 37.65                                                             
C  6.71 11.62 51.34                                                             
C  6.71 11.62 65.03                                                             
C 10.74  9.30 10.27                                                             
C 10.74  9.30 23.96                                                             
C 10.74  9.30 37.65                                                             
C 10.74  9.30 51.34                                                             
C 10.74  9.30 65.03                                                             
C 14.76  6.97 10.27                                                             
C 14.76  6.97 23.96                                                             
C 14.76  6.97 37.65                                                             
C 14.76  6.97 51.34                                                             
C 14.76  6.97 65.03                                                             
C 18.79  4.65 10.27                                                             
C 18.79  4.65 23.96                                                             
C 18.79  4.65 37.65                                                             
C 18.79  4.65 51.34                                                             
C 18.79  4.65 65.03                                                             
C 22.81  2.32 10.27                                                             
C 22.81  2.32 23.96                                                             
C 22.81  2.32 37.65                                                             
C 22.81  2.32 51.34                                                             
C 22.81  2.32 65.03                                                             
C 26.84  0.00 10.27                                                             
C 26.84  0.00 23.96                                                             
C 26.84  0.00 37.65                                                             
C 26.84  0.00 51.34                                                             
C 26.84  0.00 65.03                                                             
C  6.71 16.27 10.27                                                             
C  6.71 16.27 23.96                                                             
C  6.71 16.27 37.65                                                             
C  6.71 16.27 51.34                                                             
C  6.71 16.27 65.03                                                             
C 10.74 13.95 10.27                                                             
C 10.74 13.95 23.96                                                             
C 10.74 13.95 37.65                                                             
C 10.74 13.95 51.34                                                             
C 10.74 13.95 65.03                                                             
C 14.76 11.62 10.27                                                             
C 14.76 11.62 23.96                                                             
C 14.76 11.62 37.65                                                             
C 14.76 11.62 51.34                                                             
C 14.76 11.62 65.03                                                             
C 18.79  9.30 10.27                                                             
C 18.79  9.30 23.96                                                             
C 18.79  9.30 37.65                                                             
C 18.79  9.30 51.34                                                             
C 18.79  9.30 65.03                                                             
C 22.81  6.97 10.27                                                             
C 22.81  6.97 23.96                                                             
C 22.81  6.97 37.65                                                             
C 22.81  6.97 51.34                                                             
C 22.81  6.97 65.03                                                             
C 26.84  4.65 10.27                                                             
C 26.84  4.65 23.96                                                             
C 26.84  4.65 37.65                                                             
C 26.84  4.65 51.34                                                             
C 26.84  4.65 65.03                                                             
C 30.86  2.32 10.27                                                             
C 30.86  2.32 23.96                                                             
C 30.86  2.32 37.65                                                             
C 30.86  2.32 51.34                                                             
C 30.86  2.32 65.03                                                             
C 14.76 16.27 10.27                                                             
C 14.76 16.27 23.96                                                             
C 14.76 16.27 37.65                                                             
C 14.76 16.27 51.34                                                             
C 14.76 16.27 65.03                                                             
C 18.79 13.95 10.27                                                             
C 18.79 13.95 23.96                                                             
C 18.79 13.95 37.65                                                             
C 18.79 13.95 51.34                                                             
C 18.79 13.95 65.03                                                             
C 22.81 11.62 10.27                                                             
C 22.81 11.62 23.96                                                             
C 22.81 11.62 37.65                                                             
C 22.81 11.62 51.34                                                             
C 22.81 11.62 65.03                                                             
C 26.84  9.30 10.27                                                             
C 26.84  9.30 23.96                                                             
C 26.84  9.30 37.65                                                             
C 26.84  9.30 51.34                                                             
C 26.84  9.30 65.03                                                             
C 30.86  6.97 10.27                                                             
C 30.86  6.97 23.96                                                             
C 30.86  6.97 37.65                                                             
C 30.86  6.97 51.34                                                             
C 30.86  6.97 65.03                                                             
C 22.81 16.27 10.27                                                             
C 22.81 16.27 23.96                                                             
C 22.81 16.27 37.65                                                             
C 22.81 16.27 51.34                                                             
C 22.81 16.27 65.03                                                             
C 26.84 13.95 10.27                                                             
C 26.84 13.95 23.96                                                             
C 26.84 13.95 37.65                                                             
C 26.84 13.95 51.34                                                             
C 26.84 13.95 65.03                                                             
C 30.86 11.62 10.27                                                             
C 30.86 11.62 23.96                                                             
C 30.86 11.62 37.65                                                             
C 30.86 11.62 51.34                                                             
C 30.86 11.62 65.03                                                             
C 30.86 16.27 10.27                                                             
C 30.86 16.27 23.96                                                             
C 30.86 16.27 37.65                                                             
C 30.86 16.27 51.34                                                             
C 30.86 16.27 65.03                                                             
%ENDBLOCK POSITIONS_ABS                                                         

--------------------------------------------------------------------------------
-------------------------------- END INPUT FILE --------------------------------
--------------------------------------------------------------------------------


 
<<<<<<<<<<<<<<<<<<<<<<<<<<<<<<<<< Full system >>>>>>>>>>>>>>>>>>>>>>>>>>>>>>>>>>
<<<<<<<<<<<<<<<<<<<<<<<<<<< PAW Dataset information >>>>>>>>>>>>>>>>>>>>>>>>>>>
File: ~/pp/paw/c_pbe_abinit.paw; rc = 1.25 bohr; shape type =  3; rshape = 1.25 bohr;
  Atomic number:  6;  ionic charge:  4.000000
    Partial Wave 1: l = 0
    Partial Wave 2: l = 0
    Partial Wave 3: l = 1
    Partial Wave 4: l = 1
  Core charge supplied for Nonlinear Core Corrections
<<<<<<<<<<<<<<<<<<<<<<<<<<<<<<<<<<<<<<< >>>>>>>>>>>>>>>>>>>>>>>>>>>>>>>>>>>>>>>

-------------------------- Atom counting information ---------------------------
Symbol    Natoms    Nngwfs    Nprojs
  C        640      2560      5120
.......   ......    ......    ......
Totals:    640      2560      5120
--------------------------------------------------------------------------------

=============================== PSINC grid sizes ===============================
                      Simulation cell:   63 x  35 x 135
                              FFT-box:   63 x  35 x 117
                                  PPD:    7 x   5 x   1
Grid space d1=  0.511269841270a0 (KE cutoff=  29.06054Eh = 790.77748eV)
Grid space d2=  0.531142857143a0 (KE cutoff=  26.92659Eh = 732.70972eV)
Grid space d3=  0.507037037037a0 (KE cutoff=  29.54776Eh = 804.03559eV)
================================================================================
  
WARNING in cell_grid_distribute:
Average of less than one 23-slab per node, so workload cannot be
equally balanced between nodes.

********************* Fourier parallelisation information **********************
       Coarse grid (whole simulation cell) dimensions:     63    35   135
          Real-space ('12') slabs/node (min max mean):      3     4     3
         Recip-space ('23') slabs/node (min max mean):      0     1     0
********************************************************************************

********************* Fourier parallelisation information **********************
       Double grid (whole simulation cell) dimensions:    126    70   270
          Real-space ('12') slabs/node (min max mean):      6     7     6
         Recip-space ('23') slabs/node (min max mean):      1     2     1
********************************************************************************

Atom SCF Calculation for C  : Z (AE atom) =   6 : Z (PS atom) =   4
Config String: 2s2 2p2
Orbitals (num,occ):  2     2.00 2.00
Orbitals   (num,l):  2        0    1
Real-space Grid (nr,dr,rmax): 1293    0.0069659443    9.0000000000
Spherical Bessel Basis (nsws,lmax,cutoff):   37    2  161.4736382572
Confining potential (l,width,scale):  0    3.0000000000  100.0000000000
Confining potential (l,width,scale):  1    3.0000000000  100.0000000000
  1         -5.4283124456   -1.2935102156    4.5135257941   -1.5923561795
  2         -5.4241534249   -1.3636937911    4.4427183619   -1.5694122055
  3         -5.4326289545   -1.3865748334    4.4195613881   -1.5634604620
  4         -5.4368073263   -1.3933479911    4.4127833993   -1.5619680687
  5         -5.4388652800   -1.3969668505    4.4091714945   -1.5612108736
  6         -5.4399077146   -1.3988848872    4.4072644158   -1.5608235486
  7         -5.4404434041   -1.3998980658    4.4062615348   -1.5606243010
  8         -5.4407208401   -1.4004325328    4.4057350952   -1.5605214507
  9         -5.4408651553   -1.4007143559    4.4054589454   -1.5604682523
 10         -5.4409404127   -1.4008629743    4.4053141024   -1.5604407028
 11         -5.4409797152   -1.4009413770    4.4052381126   -1.5604264250
 12         -5.4410002582   -1.4009827603    4.4051982277   -1.5604190215
 13         -5.4410110012   -1.4010046176    4.4051772812   -1.5604151811
 14         -5.4410166211   -1.4010161701    4.4051662735   -1.5604131883
 15         -5.4410195614   -1.4010222805    4.4051604845   -1.5604121539
 16         -5.4410211001   -1.4010255150    4.4051574379   -1.5604116169
 17         -5.4410219052   -1.4010272285    4.4051558332   -1.5604113379
 18         -5.4410223266   -1.4010281369    4.4051549874   -1.5604111930
 19         -5.4410225472   -1.4010286190    4.4051545411   -1.5604111177
 20         -5.4410226626   -1.4010288749    4.4051543055   -1.5604110786
 21         -5.4410227231   -1.4010290110    4.4051541810   -1.5604110582
Atom SCF converged after  21 iterations to a total energy of     -5.44102272

Determining parallel strategy ...
... using space-filling curve
... NGWF load balancing: max     64;  min     64;  average     64
... Projector load balancing: max    128;  min    128;  average    128
... done
Calculating Ewald energy ...
              Ewald: real-space energy =    9482.860412
        Ewald: reciprocal-space energy =       0.232615
         Ewald: (sum_charge)**2 Energy =   11028.304647
         Ewald: (sum_charge**2) Energy =     871.864035
                          Ewald Energy =   -2417.075656
Basis initialisation ...... NGWF spheres initialised
... Projector spheres initialised
... NGWF tight boxes initialised
... Projector tight boxes initialised
... Tight-boxes gathered
... NGWF basis size (local,global):     692564  27894720
... PAW projector initialisation
... done

============================= Charge Augmentation ==============================
                           Aug box size:   11 x  11 x  11
================================================================================

========================== Sparse matrix information ===========================
                        Overlap matrix filling:  40.94%
                        Density kernel filling: 100.00%
              NGWF-Proj overlap matrix filling:  12.19%
                    Aug Overlap matrix filling:  47.03%
                    Hamiltonian matrix filling:  47.03%
                  NGWF diagonal matrix filling:   0.16%
                             KS matrix filling: 100.00% 
                           KSKS matrix filling: 100.00% 
================================================================================

Sparse matrix initialisation ... done
NGWF initialisation ...... done
============ Calculation of NGWF S^-1 using Hotelling algorithm ================ 
         Iteration  |  Frobenius norm and Maximum abs value    (of I-S*S_n^-1)   
               1       0.49000313E+02     0.97523526E+00
               2       0.47731935E+02     0.95231116E+00
               3       0.45840957E+02     0.91110491E+00
               4       0.43406273E+02     0.84281402E+00
               5       0.40505593E+02     0.74176834E+00
               6       0.37157808E+02     0.67549144E+00
               7       0.33701894E+02     0.62859741E+00
               8       0.30403738E+02     0.58922305E+00
               9       0.26836939E+02     0.54507187E+00
              10       0.22298455E+02     0.47503146E+00
              11       0.16392068E+02     0.36416872E+00
              12       0.96370247E+01     0.21924402E+00
              13       0.38226135E+01     0.84951626E-01
              14       0.71881856E+00     0.14666863E-01
              15       0.30103136E-01     0.53581712E-03
              16       0.67213658E-04     0.91257314E-06
              17       0.50600000E-09     0.42007509E-11
              18       0.72228564E-13     0.37747583E-14
================================================================================
Calculating core density ...
================================= Core Density =================================
               Core den box size:   21 x  21 x  21
================================================================================
 ... done
Up spin density kernel initialisation ...... done

Writing density kernel to file "3.622312_GO_manual_4x64graphite.dkn" ... done

>>> Optimising kernel for current NGWFs:

--------------------------- Ensemble-DFT optimisation --------------------------
Running ScaLAPACK on   40 processor(s).

--------------------------------------------------------------------------------
  Iter                              Commutator    Free_energy(A=E-TS)     DeltaA
#    0                          0.000029685696   -3650.42787021131335  -3.65E+03

Step                       =       0.381966011250
Energy                     =   -3650.427840222414
Entropy (-TS)              =      -0.000029989001
Free energy (A=E-TS)       =   -3650.427870211313
Est. 0K Energy 0.5*(E+A)   =   -3650.427855216863
Residual Non-orthogonality =       0.000000000000
Residual N_electrons       =       0.000000000101

Spin          Integrated_Ne            Fermi_level     Delta_Fermi_level
   1      2559.999999999427         0.177142146773              1.77E-01

                           Spin 1          
     Orb      H-eigenvalues     Occupancies
       1 |    -0.5447723675    1.0000000000 | 
                          ------
    1276 |     0.1426826223    0.9999811967 | 
    1277 |     0.1433090090    0.9999770842 | 
    1278 |     0.1433090090    0.9999770842 | 
    1279 |     0.1435491135    0.9999752792 | 
    1280 |     0.1441744173    0.9999698829 | 
                 - Gap at zero temperature -
    1281 |     0.2126712965    0.0000134137 | 
    1282 |     0.2126712965    0.0000134137 | 
    1283 |     0.2126935234    0.0000133199 | 
    1284 |     0.2128573206    0.0000126485 | 
    1285 |     0.2128573206    0.0000126485 | 
                          ------
    2560 |     1.0096142982    0.0000000000 | 

                       |  Abs_value |  Threshold | Converged
     Delta_Free_energy |   3.65E+03 |   1.00E-06 |        No
     Delta_Energy      |   3.65E+03 |   1.00E-04 |        No
     Delta_Entropy     |   3.00E-05 |   1.00E-04 |       Yes
     Commutator        |   2.97E-05 |   1.00E-05 |        No
     Delta_Fermi_level |   1.77E-01 |   1.00E-03 |        No

  Line search of the free energy minimum:
  Step_type        Step             Free_energy   Predicted_free_energy
.   Initial    0.000000    -3650.42787021131335
.    Trial1    0.381966    -3650.42883481051012
.    Trial2    0.618034    -3650.42890070864678
. Quadratic    0.538403    -3650.42892366462320    -3650.42892375474003

--------------------------------------------------------------------------------
  Iter                              Commutator    Free_energy(A=E-TS)     DeltaA
#    1                          0.000017437867   -3650.42892366462320  -1.05E-03

Step                       =       0.538403351486
Energy                     =   -3650.428893710635
Entropy (-TS)              =      -0.000029953930
Free energy (A=E-TS)       =   -3650.428923664623
Est. 0K Energy 0.5*(E+A)   =   -3650.428908687629
Residual Non-orthogonality =       0.000000000000
Residual N_electrons       =      -0.000000000058

Spin          Integrated_Ne            Fermi_level     Delta_Fermi_level
   1      2560.000000000332         0.176407528420             -7.35E-04

                           Spin 1          
     Orb      H-eigenvalues     Occupancies
       1 |    -0.5468301292    1.0000000000 | 
                          ------
    1276 |     0.1420104881    0.9999808220 | 
    1277 |     0.1424947917    0.9999776530 | 
    1278 |     0.1424947917    0.9999776530 | 
    1279 |     0.1428723537    0.9999748234 | 
    1280 |     0.1433554951    0.9999706740 | 
                 - Gap at zero temperature -
    1281 |     0.2118939943    0.0000135957 | 
    1282 |     0.2118939943    0.0000135957 | 
    1283 |     0.2119170512    0.0000134971 | 
    1284 |     0.2120728088    0.0000128493 | 
    1285 |     0.2120728088    0.0000128493 | 
                          ------
    2560 |     1.0080249255    0.0000000000 | 

                       |  Abs_value |  Threshold | Converged
     Delta_Free_energy |   1.05E-03 |   1.00E-06 |        No
     Delta_Energy      |   1.05E-03 |   1.00E-04 |        No
     Delta_Entropy     |   3.51E-08 |   1.00E-04 |       Yes
     Commutator        |   1.74E-05 |   1.00E-05 |        No
     Delta_Fermi_level |   7.35E-04 |   1.00E-03 |       Yes

  Line search of the free energy minimum:
  Step_type        Step             Free_energy   Predicted_free_energy
.   Initial    0.000000    -3650.42892366462320
.    Trial1    0.538403    -3650.42887462293174
.    Trial2    0.205652    -3650.42918974235226
. Quadratic    0.258259    -3650.42920123084286    -3650.42920126076615

--------------------------------------------------------------------------------
  Iter                              Commutator    Free_energy(A=E-TS)     DeltaA
#    2                          0.000009813855   -3650.42920123084286  -2.78E-04

Step                       =       0.258258961384
Energy                     =   -3650.429171299525
Entropy (-TS)              =      -0.000029931265
Free energy (A=E-TS)       =   -3650.429201230843
Est. 0K Energy 0.5*(E+A)   =   -3650.429186265183
Residual Non-orthogonality =       0.000000000000
Residual N_electrons       =      -0.000000000053

Spin          Integrated_Ne            Fermi_level     Delta_Fermi_level
   1      2560.000000000303         0.176243307774             -1.64E-04

                           Spin 1          
     Orb      H-eigenvalues     Occupancies
       1 |    -0.5472893528    1.0000000000 | 
                          ------
    1276 |     0.1418170244    0.9999809983 | 
    1277 |     0.1423439201    0.9999775586 | 
    1278 |     0.1423439201    0.9999775586 | 
    1279 |     0.1426760891    0.9999750769 | 
    1280 |     0.1432018467    0.9999705759 | 
                 - Gap at zero temperature -
    1281 |     0.2117491825    0.0000135127 | 
    1282 |     0.2117491825    0.0000135127 | 
    1283 |     0.2117706017    0.0000134216 | 
    1284 |     0.2119317830    0.0000127556 | 
    1285 |     0.2119317830    0.0000127556 | 
                          ------
    2560 |     1.0076642794    0.0000000000 | 

                       |  Abs_value |  Threshold | Converged
     Delta_Free_energy |   2.78E-04 |   1.00E-06 |        No
     Delta_Energy      |   2.78E-04 |   1.00E-04 |        No
     Delta_Entropy     |   2.27E-08 |   1.00E-04 |       Yes
     Commutator        |   9.81E-06 |   1.00E-05 |       Yes
     Delta_Fermi_level |   1.64E-04 |   1.00E-03 |       Yes

  Line search of the free energy minimum:
  Step_type        Step             Free_energy   Predicted_free_energy
.   Initial    0.000000    -3650.42920123084286
.    Trial1    0.258259    -3650.42928565759621
.    Trial2    0.541579    -3650.42928198664868
. Quadratic    0.389595    -3650.42929647566598    -3650.42929648225436

--------------------------------------------------------------------------------
  Iter                              Commutator    Free_energy(A=E-TS)     DeltaA
#    3                          0.000006832645   -3650.42929647566598  -9.52E-05

Step                       =       0.389595385279
Energy                     =   -3650.429266571553
Entropy (-TS)              =      -0.000029904140
Free energy (A=E-TS)       =   -3650.429296475666
Est. 0K Energy 0.5*(E+A)   =   -3650.429281523609
Residual Non-orthogonality =       0.000000000000
Residual N_electrons       =       0.000000000026

Spin          Integrated_Ne            Fermi_level     Delta_Fermi_level
   1      2559.999999999851         0.176058402055             -1.85E-04

                           Spin 1          
     Orb      H-eigenvalues     Occupancies
       1 |    -0.5477948352    1.0000000000 | 
                          ------
    1276 |     0.1416163984    0.9999810923 | 
    1277 |     0.1421598983    0.9999775523 | 
    1278 |     0.1421598983    0.9999775523 | 
    1279 |     0.1424730470    0.9999752192 | 
    1280 |     0.1430154298    0.9999705900 | 
                 - Gap at zero temperature -
    1281 |     0.2115745498    0.0000134689 | 
    1282 |     0.2115745498    0.0000134689 | 
    1283 |     0.2115948865    0.0000133827 | 
    1284 |     0.2117591939    0.0000127061 | 
    1285 |     0.2117591939    0.0000127061 | 
                          ------
    2560 |     1.0072787062    0.0000000000 | 

                       |  Abs_value |  Threshold | Converged
     Delta_Free_energy |   9.52E-05 |   1.00E-06 |        No
     Delta_Energy      |   9.53E-05 |   1.00E-04 |       Yes
     Delta_Entropy     |   2.71E-08 |   1.00E-04 |       Yes
     Commutator        |   6.83E-06 |   1.00E-05 |       Yes
     Delta_Fermi_level |   1.85E-04 |   1.00E-03 |       Yes

  Line search of the free energy minimum:
  Step_type        Step             Free_energy   Predicted_free_energy
.   Initial    0.000000    -3650.42929647566598
.    Trial1    0.389595    -3650.42932742346693
.    Trial2    0.622749    -3650.42925783740566
. Quadratic    0.260251    -3650.42933758118079    -3650.42933757538913

--------------------------------------------------------------------------------
  Iter                              Commutator    Free_energy(A=E-TS)     DeltaA
#    4                          0.000004356480   -3650.42933758118079  -4.11E-05

Step                       =       0.260251095359
Energy                     =   -3650.429307687713
Entropy (-TS)              =      -0.000029893385
Free energy (A=E-TS)       =   -3650.429337581181
[...]
 C   160 -- C   385       -0.10      5.37000
 C   159 -- C   384       -0.10      5.37000
 C   158 -- C   383       -0.10      5.37000
 C   157 -- C   382       -0.10      5.37000
 C   156 -- C   381       -0.10      5.37000
 C   155 -- C   355       -0.10      5.37000
 C   154 -- C   354       -0.10      5.37000
 C   153 -- C   353       -0.10      5.37000
 C   152 -- C   352       -0.10      5.37000
 C   151 -- C   351       -0.10      5.37000
 C   140 -- C   335       -0.10      5.37000
 C   139 -- C   334       -0.10      5.37000
 C   138 -- C   333       -0.10      5.37000
 C   137 -- C   332       -0.10      5.37000
 C   136 -- C   331       -0.10      5.37000
 C   115 -- C   325       -0.10      5.37000
 C   114 -- C   324       -0.10      5.37000
 C   113 -- C   323       -0.10      5.37000
 C   112 -- C   322       -0.10      5.37000
 C   111 -- C   321       -0.10      5.37000
 C   219 -- C   569       -0.09      5.37202
 C   218 -- C   568       -0.09      5.37202
 C   217 -- C   567       -0.09      5.37202
 C   216 -- C   566       -0.09      5.37202
 C   250 -- C   540       -0.09      5.37202
 C   249 -- C   539       -0.09      5.37202
 C   248 -- C   538       -0.09      5.37202
 C   247 -- C   537       -0.09      5.37202
 C   246 -- C   536       -0.09      5.37202
 C   220 -- C   570       -0.09      5.37202
 C   285 -- C   580       -0.09      5.37202
 C   284 -- C   579       -0.09      5.37202
 C   283 -- C   578       -0.09      5.37202
 C   282 -- C   577       -0.09      5.37202
 C   281 -- C   576       -0.09      5.37202
 C   260 -- C   605       -0.09      5.37202
 C   259 -- C   604       -0.09      5.37202
 C   258 -- C   603       -0.09      5.37202
 C   257 -- C   602       -0.09      5.37202
 C   256 -- C   601       -0.09      5.37202
 C   220 -- C   515       -0.09      5.37202
 C   219 -- C   514       -0.09      5.37202
 C   218 -- C   513       -0.09      5.37202
 C   217 -- C   512       -0.09      5.37202
 C   216 -- C   511       -0.09      5.37202
 C   195 -- C   540       -0.09      5.37202
 C   195 -- C   500       -0.09      5.37202
 C   194 -- C   539       -0.09      5.37202
 C   194 -- C   499       -0.09      5.37202
 C   193 -- C   538       -0.09      5.37202
 C   193 -- C   498       -0.09      5.37202
 C   192 -- C   537       -0.09      5.37202
 C   192 -- C   497       -0.09      5.37202
 C   191 -- C   536       -0.09      5.37202
 C   191 -- C   496       -0.09      5.37202
 C   180 -- C   515       -0.09      5.37202
 C   179 -- C   514       -0.09      5.37202
 C   178 -- C   513       -0.09      5.37202
 C   177 -- C   512       -0.09      5.37202
 C   176 -- C   511       -0.09      5.37202
 C    11 -- C   331       -0.09      5.37202
 C   205 -- C   550       -0.09      5.37202
 C   204 -- C   549       -0.09      5.37202
 C   203 -- C   548       -0.09      5.37202
 C   202 -- C   547       -0.09      5.37202
 C   201 -- C   546       -0.09      5.37202
 C    95 -- C   425       -0.09      5.37202
 C    95 -- C   365       -0.10      5.37202
 C    94 -- C   424       -0.09      5.37202
 C    94 -- C   364       -0.10      5.37202
 C    93 -- C   423       -0.09      5.37202
 C    93 -- C   363       -0.10      5.37202
 C    92 -- C   422       -0.09      5.37202
 C    92 -- C   362       -0.10      5.37202
 C    91 -- C   421       -0.09      5.37202
 C    91 -- C   361       -0.10      5.37202
 C    40 -- C   365       -0.09      5.37202
 C    39 -- C   364       -0.09      5.37202
 C    38 -- C   363       -0.09      5.37202
 C    37 -- C   362       -0.09      5.37202
 C    36 -- C   361       -0.09      5.37202
 C    15 -- C   335       -0.09      5.37202
 C    65 -- C   395       -0.10      5.37202
 C    65 -- C   345       -0.09      5.37202
 C    64 -- C   394       -0.10      5.37202
 C    64 -- C   344       -0.09      5.37202
 C    63 -- C   393       -0.10      5.37202
 C    30 -- C   355       -0.10      5.37202
 C    63 -- C   343       -0.09      5.37202
 C    62 -- C   392       -0.10      5.37202
 C    30 -- C   325       -0.09      5.37202
 C    14 -- C   334       -0.09      5.37202
 C    62 -- C   342       -0.09      5.37202
 C    61 -- C   391       -0.10      5.37202
 C    29 -- C   354       -0.10      5.37202
 C    61 -- C   341       -0.09      5.37202
 C    29 -- C   324       -0.09      5.37202
 C   260 -- C   550       -0.09      5.37202
 C   259 -- C   549       -0.09      5.37202
 C    28 -- C   353       -0.10      5.37202
 C   258 -- C   548       -0.09      5.37202
 C   257 -- C   547       -0.09      5.37202
 C   256 -- C   546       -0.09      5.37202
 C    28 -- C   323       -0.09      5.37202
 C    27 -- C   352       -0.10      5.37202
 C    13 -- C   333       -0.09      5.37202
 C    27 -- C   322       -0.09      5.37202
 C   120 -- C   395       -0.09      5.37202
 C    26 -- C   351       -0.10      5.37202
 C   119 -- C   394       -0.09      5.37202
 C   118 -- C   393       -0.09      5.37202
 C    55 -- C   335       -0.09      5.37202
 C   117 -- C   392       -0.09      5.37202
 C    26 -- C   321       -0.09      5.37202
 C   116 -- C   391       -0.09      5.37202
 C    54 -- C   334       -0.09      5.37202
 C    12 -- C   332       -0.09      5.37202
 C    53 -- C   333       -0.09      5.37202
 C   230 -- C   580       -0.09      5.37202
 C   230 -- C   525       -0.09      5.37202
 C   229 -- C   579       -0.09      5.37202
 C   229 -- C   524       -0.09      5.37202
 C   228 -- C   578       -0.09      5.37202
 C    52 -- C   332       -0.09      5.37202
 C   228 -- C   523       -0.09      5.37202
 C   227 -- C   577       -0.09      5.37202
 C   227 -- C   522       -0.09      5.37202
 C   226 -- C   576       -0.09      5.37202
 C   226 -- C   521       -0.09      5.37202
 C    51 -- C   331       -0.09      5.37202
 C    23 -- C   478       -0.09      5.37202
 C    49 -- C   469       -0.09      5.37202
 C    48 -- C   468       -0.09      5.37202
 C    47 -- C   467       -0.09      5.37202
 C    22 -- C   477       -0.09      5.37202
 C    46 -- C   466       -0.09      5.37202
 C    21 -- C   476       -0.09      5.37202
 C    85 -- C   355       -0.09      5.37202
 C    84 -- C   354       -0.09      5.37202
 C    83 -- C   353       -0.09      5.37202
 C    82 -- C   352       -0.09      5.37202
 C    81 -- C   351       -0.09      5.37202
 C    55 -- C   385       -0.09      5.37202
 C    54 -- C   384       -0.09      5.37202
 C    25 -- C   480       -0.09      5.37202
 C    53 -- C   383       -0.09      5.37202
 C    52 -- C   382       -0.09      5.37202
 C    51 -- C   381       -0.09      5.37202
 C    24 -- C   479       -0.09      5.37202
 C    50 -- C   470       -0.09      5.37202
 C    24 -- C   449       -0.09      5.37202
 C     6 -- C   416       -0.09      5.37202
 C    23 -- C   448       -0.09      5.37202
 C    22 -- C   447       -0.09      5.37202
 C    10 -- C   470       -0.09      5.37202
 C     5 -- C   450       -0.09      5.37202
 C    21 -- C   446       -0.09      5.37202
 C    10 -- C   420       -0.09      5.37202
 C     9 -- C   469       -0.09      5.37202
 C     9 -- C   419       -0.09      5.37202
 C     8 -- C   468       -0.09      5.37202
 C     4 -- C   449       -0.09      5.37202
 C   150 -- C   440       -0.09      5.37202
 C   149 -- C   439       -0.09      5.37202
 C   148 -- C   438       -0.09      5.37202
 C   147 -- C   437       -0.09      5.37202
 C     8 -- C   418       -0.09      5.37202
 C   146 -- C   436       -0.09      5.37202
 C     2 -- C   447       -0.09      5.37202
 C   135 -- C   460       -0.09      5.37202
 C     7 -- C   467       -0.09      5.37202
 C   134 -- C   459       -0.09      5.37202
 C   133 -- C   458       -0.09      5.37202
 C   132 -- C   457       -0.09      5.37202
 C   131 -- C   456       -0.09      5.37202
 C     7 -- C   417       -0.09      5.37202
 C     1 -- C   446       -0.09      5.37202
 C     6 -- C   466       -0.09      5.37202
 C    25 -- C   450       -0.09      5.37202
 C     3 -- C   448       -0.09      5.37202
 C   106 -- C   436       -0.09      5.37202
 C   106 -- C   376       -0.09      5.37202
 C    80 -- C   410       -0.09      5.37202
 C    79 -- C   409       -0.09      5.37202
 C    78 -- C   408       -0.09      5.37202
 C    77 -- C   407       -0.09      5.37202
 C    76 -- C   406       -0.09      5.37202
 C   135 -- C   410       -0.09      5.37202
 C   134 -- C   409       -0.09      5.37202
 C   133 -- C   408       -0.09      5.37202
 C   132 -- C   407       -0.09      5.37202
 C   131 -- C   406       -0.09      5.37202
 C   110 -- C   440       -0.09      5.37202
 C   110 -- C   380       -0.09      5.37202
 C   109 -- C   439       -0.09      5.37202
 C   109 -- C   379       -0.09      5.37202
 C   108 -- C   438       -0.09      5.37202
 C   108 -- C   378       -0.09      5.37202
 C   107 -- C   437       -0.09      5.37202
 C   107 -- C   377       -0.09      5.37202
 C   215 -- C   635       -0.10      5.38000
 C   214 -- C   634       -0.10      5.38000
 C   213 -- C   633       -0.10      5.38000
 C   212 -- C   632       -0.10      5.38000
 C   211 -- C   631       -0.10      5.38000
 C   190 -- C   620       -0.10      5.38000
 C   189 -- C   619       -0.10      5.38000
 C   188 -- C   618       -0.10      5.38000
 C   187 -- C   617       -0.10      5.38000
 C   186 -- C   616       -0.10      5.38000
 C   175 -- C   595       -0.10      5.38000
 C   174 -- C   594       -0.10      5.38000
 C   173 -- C   593       -0.10      5.38000
 C   172 -- C   592       -0.10      5.38000
 C   171 -- C   591       -0.10      5.38000
 C   245 -- C   640       -0.10      5.38000
 C   244 -- C   639       -0.10      5.38000
 C   243 -- C   638       -0.10      5.38000
 C   242 -- C   637       -0.10      5.38000
 C   241 -- C   636       -0.10      5.38000
==================================================


=================== Orbital energy and occupancy information ===================

      Total number of orbitals:    2560
        Occupancy sum (kernel):    1279.999999999
   Occupancy sum (eigenvalues):    1279.999999999
                 HOMO-LUMO gap:       0.065267983 Eh
                 Mid-gap level:       0.229814328 Eh

                        Orbital | Energy (Eh) | Occupancy
                            1    -0.491087283   1.0000000
                        .......   ...........   .........
                         1271     0.192434839   0.9999885
                         1272     0.192434839   0.9999885
                         1273     0.192906465   0.9999866
                         1274     0.192906465   0.9999866
                         1275     0.195723569   0.9999674
                         1276     0.195723569   0.9999674
                         1277     0.196190453   0.9999622
                         1278     0.196190453   0.9999622
                         1279     0.196718071   0.9999554
                         1280     0.197180337   0.9999483
                        ....... -- gap at 0K -- .........
                         1281     0.262448320   0.0000216
                         1282     0.262448320   0.0000216
                         1283     0.262696957   0.0000200
                         1284     0.262696957   0.0000200
                         1285     0.262970277   0.0000184
                         1286     0.262970277   0.0000184
                         1287     0.263230741   0.0000169
                         1288     0.263230741   0.0000169
                         1289     0.263239980   0.0000168
                         1290     0.263239980   0.0000168
                        .......   ...........   .........
                         2560     1.120026190   0.0000000

================================================================================

===================== Writing canonical molecular orbitals =====================
| Orbital  Energy (eV)  Norm     |
| HOMO      5.36554999  1.000000 | Writing "3.622312_GO_manual_4x64graphite_HOMO.cube" ... done
Writing "3.622312_GO_manual_4x64graphite_HOMO.dx" ... done
| LUMO      7.14158218  1.000000 | Writing "3.622312_GO_manual_4x64graphite_LUMO.cube" ... done
Writing "3.622312_GO_manual_4x64graphite_LUMO.dx" ... done
================================================================================
 
===================== Density of States (DOS) calculation ======================
Writing "3.622312_GO_manual_4x64graphite_DOS.txt" ...  done
================================================================================
 
Writing bands to file "3.622312_GO_manual_4x64graphite.val_bands" ... done
 
================ Projected Density of States (pDOS) calculation ================
 
Constructing AM resolved functions  ...... done
Writing NGWF plot files in formats: CUBE DX ...  done
 
Performing overlap integrals ...  done
 
Computing pDOS weights ...  done
 
All bands spilling parameter =   3.26 %
Occupancy-weighted spilling parameter =   0.91 %
 
 => Outputting data for OptaDOS <=
 
Writing pDOS weights to file "3.622312_GO_manual_4x64graphite.val_pdos_bin" ... done
 
Writing band gradients to file "3.622312_GO_manual_4x64graphite.val_dome_bin" ... done
 
Writing Castep output cell file to "3.622312_GO_manual_4x64graphite-out.cell" ... done
 
 => Computing Gaussian smeared pDOS <= 
Writing "3.622312_GO_manual_4x64graphite_PDOS.txt" ...  done
 
 => Computing Occupancy-weighted Gaussian smeared pDOS <= 
Writing "3.622312_GO_manual_4x64graphite_occ_PDOS.txt" ...  done
  => Band centres: 
 S band centre of group 1:  -13.799092 eV
 P band centre of group 1:   -6.679016 eV
  Band centres done. <=
  => Integrated number of electrons in each AM band: 
 S num electrons of group 1:  574.084954
 P num electrons of group 1: 1962.681264
  Integrated number of electrons done. <=
================================================================================

------------------------------ TIMING INFORMATION ------------------------------
AVERAGE TIME:    3324.279s on     40 node(s)                                    
TOTAL TIME:      3324.279s on     40 node(s)                                    
================= AVERAGE TIMINGS FROM ALL NODES (CUMULATIVE) ==================
|| TAG                                    #calls    cpu time   %total  Gflops ||
|| work_imbalance                       :     1        0.00s   0.000%  ------ ||
|| paw_tcore_hartree_on_grid            :     1        0.00s   0.000%  ------ ||
|| paw_tcore_density                    :     1        0.01s   0.000%  ------ ||
|| paw_sphere_density_on_grid           :     1        0.01s   0.000%  ------ ||
|| sparse_set_to_garbage                :   147        0.02s   0.001%  ------ ||
|| paw_dij_hartree                      :   307        0.04s   0.001%  ------ ||
|| pseudo_make_structure_factor         :     1        0.06s   0.002%  ------ ||
|| basis_extract_function_from_box      :  1664        0.07s   0.002%  ------ ||
|| paw_species_calc_proj_prec_mat       :     1        0.12s   0.004%  ------ ||
|| paw_dataset_init                     :     1        0.15s   0.005%  ------ ||
|| density_init_guess_real              :     1        0.17s   0.005%  ------ ||
|| ngwfs_initialise_from_radial         :     2        0.67s   0.020%  ------ ||
|| restart_kernel_write                 :    14        0.71s   0.021%  ------ ||
|| sparse_init                          :     1        0.94s   0.028%  ------ ||
|| hartree_on_grid                      :   231        1.20s   0.036%  ------ ||
|| dense_normal_eigensolve              :     1        1.23s   0.037%  ------ ||
|| projectors_init_fftbox_recip         :   131        2.52s   0.076%  ------ ||
|| ewald_calculate_energy               :     1        3.10s   0.093%  ------ ||
|| fourier_apply_box_pair               :  2464        4.08s   0.123% 560.040 ||
|| basis_copy_function_to_box           : 21888        4.67s   0.141%  ------ ||
|| augmentation_screen_dij              :   236        5.14s   0.155%  ------ ||
|| sw_init                              :     1        6.73s   0.202%  ------ ||
|| sparse_embed_hotelling_invert_embed  :    25        7.17s   0.216%  ------ ||
|| ngwf_gradient_coeffs                 :    13        9.19s   0.276%  ------ ||
|| sparse_trace                         :  2782       12.51s   0.376%  ------ ||
|| fourier_apply_cell_backward          :  7132       14.06s   0.423%  64.668 ||
|| fourier_apply_cell_forward           :  6671       15.24s   0.459%  55.783 ||
|| cell_grid_extract_box_real           :  9228       15.36s   0.462%  ------ ||
|| cell_grid_deposit_box_real           : 29744       19.48s   0.586%  ------ ||
|| paw_dij_xc                           :   307       22.07s   0.664%  ------ ||
|| aug_nonlocal_mat                     :   294       31.71s   0.954%  ------ ||
|| density_fftbox_deposit_to_cell       : 14784       39.66s   1.193%  ------ ||
|| augmentation_density_on_grid         :   231       41.04s   1.235%  ------ ||
|| hamiltonian_energy_components        :     3       46.23s   1.391%  ------ ||
|| function_ops_brappd_ketppd           :    52       49.34s   1.484%  ------ ||
|| eigenstates_pdos                     :     1       53.17s   1.599%  ------ ||
|| eigenstates_calculate                :     1       57.47s   1.729%  ------ ||
|| projectors_func_ovlp_box             :    26       57.94s   1.743%  ------ ||
|| xc_energy_potential                  :   230       68.38s   2.057%  ------ ||
|| nlxc_vdw_energy                      :   460       68.79s   2.069%  ------ ||
|| integrals_kinetic                    :    25       80.59s   2.424%  ------ ||
|| dense_eigensolve                     :   202       99.49s   2.993%  ------ ||
|| properties_calculate                 :     1      103.69s   3.119%  ------ ||
|| potential_apply_to_ngwf_batch        :   288      112.52s   3.385%  ------ ||
|| sparse_product                       :  2816      112.99s   3.399%  ------ ||
|| restart_ngwfs_tightbox_output        :    12      126.92s   3.818%  ------ ||
|| basis_dot_function_with_box          : 6.707M     182.10s   5.478%  ------ ||
|| fourier_apply_box                    : 68976      214.63s   6.456% 976.530 ||
|| edft_diag_ngwf_ham                   :   201      222.73s   6.700%  ------ ||
|| projectors_gradient_batch            :    52      233.17s   7.014%  ------ ||
|| integrals_locpot_mat_els_batch       :   288      237.60s   7.147%  ------ ||
|| density_fftbox_interpolate_multiply  : 14784      286.22s   8.610%  ------ ||
|| projectors_grad_precond_batch        :    52      321.93s   9.684%  ------ ||
|| integrals_locpot_dbl_grid            :    72      351.47s  10.573%  ------ ||
|| density_batch_interp_deposit         :   924      361.26s  10.867%  ------ ||
|| edft_apply_smearing_operator         :   201      433.89s  13.052%  ------ ||
|| basis_add_function_to_box            : 18.98M     498.58s  14.998%  ------ ||
|| ngwf_gradient_build_batch            :    52      594.57s  17.886%  ------ ||
|| density_batch_row_sums               :   924      689.44s  20.740%  ------ ||
|| ngwf_gradient_batch                  :    52      783.83s  23.579%  ------ ||
|| ngwf_gradient_lnv                    :    13      818.95s  24.636%  ------ ||
|| density_on_dbl_grid                  :   231     1062.70s  31.968%  ------ ||
|| hamiltonian_lhxc_calculate           :   226     1155.59s  34.762%  ------ ||
|| edft_calculate                       :    13     1926.91s  57.965%  ------ ||
|| ngwf_cg_optimise                     :     1     3200.37s  96.273%  ------ ||
|| total_time                           :     1     3324.28s 100.000%  ------ ||
================================================================================
Overhead of generating timer report: 
- 0 ms averaging over threads,
- 5 ms ensuring consistency across MPI ranks,
- 0 ms printing in order.

Job completed: 21-02-2020 15:31 (-0000)

