 +---------------------------------------------------------------+
 |                                                               |
 |        ####### #     # ####### ####### ####### ######         |
 |        #     # ##    # #          #    #       #     #        |
 |        #     # # #   # #          #    #       #     #        |
 |        #     # #  #  # #####      #    #####   ######         |
 |        #     # #   # # #          #    #       #              |
 |        #     # #    ## #          #    #       #              |
 |        ####### #     # #######    #    ####### #              |
 |                                                               |
 |        Linear-Scaling Ab Initio Total Energy Program          |
 |                                                               |
 |          Release for academic collaborators of ODG            |
 |                                             Version 5.3.2.12  |
 |                                                               |
 +---------------------------------------------------------------+
 |                                                               |
 |  Authors:                                                     |
 |  Jacek Dziedzic, Peter D. Haynes, Nicholas D. M. Hine,        |
 |  Arash. A. Mostofi, Mike C. Payne and Chris-Kriton Skylaris   |
 |                                                               |
 |  Contributors:                                                |
 |  J. Aarons, L. Andrinopoulos, P. W. Avraam, R. A. Bell,       |
 |  A. Bhandari, G. A. Bramley, R. J. Charlton, S. J. Clark,     |
 |  R. J. Clements, G. C. Constantinescu, F. Corsetti,           |
 |  N. Corsini, O. Dieguez, S. M. M. Dubois, K. K. B. Duff,      |
 |  J. M. Escartin, A. Greco, H. Helal, Q. O. Hill, L. P. Lee,   |
 |  J.-H. Li, E. B. Linscott, G. Moynihan, D. D. O`Regan,        |
 |  O. K. Okan, M. J. S. Phipps, C. J. Pickard,                  |
 |  J. C. A. Prentice, M. I. J. Probert, L. E. Ratcliff,         |
 |  M. Robinson, A. Ruiz Serrano, J. S. Spencer, E. W. Tait,     |
 |  G. Teobaldi, D. Turban, V. Vitale, K. A. Wilkinson,          |
 |  C. Weber, J. C. Womack, N. Yeung and T. J. Zuehlsdorff       |
 |                                                               |
 |                                   Copyright (c) 2004-2020     |
 |                                                               |
 |  Please cite:                                                 |
 |  "Introducing ONETEP: Linear-scaling density functional       |
 |   simulations on parallel computers".                         |
 |   C.-K. Skylaris, P. D. Haynes, A. A. Mostofi, M. C. Payne.   |
 |   J. Chem. Phys. 122 084119 (2005).                           |
 |                                                               |
 |          in all publications arising from your use of ONETEP. |
 |                                                               |
 +---------------------------------------------------------------+
 |                                                               |
 |   ONETEP is based on developments described in the following  |
 |   publications:                                               |
 |                                                               |
 |  "Nonorthogonal generalized Wannier function pseudopotential  |
 |   plane-wave method".                                         |
 |   C.-K. Skylaris, A. A. Mostofi, P. D. Haynes, O. Dieguez,    |
 |   M. C. Payne.                                                |
 |   Phys. Rev. B 66 035119 (2002).                              |
 |                                                               |
 |  "Preconditioned iterative minimization for linear-scaling    |
 |   electronic structure calculations".                         |
 |   A. A. Mostofi, P. D. Haynes, C.-K. Skylaris, M. C. Payne.   |
 |   J. Chem. Phys. 119(17), pp.8842-8848 (2003).                |
 |                                                               |
 |  "Total-energy calculations on a real space grid with         |
 |   localized functions and a plane-wave basis".                |
 |   A. A. Mostofi, C.-K. Skylaris, P. D. Haynes, M. C. Payne.   |
 |   Comput. Phys. Commun. 147, pp.788-802 (2002).               |
 |                                                               |
 |  "Accurate kinetic energy evaluation in electronic structure  |
 |   calculations with localized functions on real space grids"  |
 |   C.-K. Skylaris, A. A. Mostofi, P. D. Haynes, C. J. Pickard, |
 |   M. C. Payne.                                                |
 |   Comput. Phys. Commun. 140, pp.315-322 (2001).               |
 |                                                               |
 |  "Accurate ionic forces and geometry optimization in linear-  |
 |   scaling density-functional theory with local orbitals"      |
 |   N. D. M. Hine, M. Robinson, P. D. Haynes, C.-K. Skylaris,   |
 |   M. C. Payne, and A. A. Mostofi.                             |
 |   Phys. Rev. B 83 195102 (2011).                              |
 |                                                               |
 +---------------------------------------------------------------+

Job started: 29-02-2020 12:39 (-0000)
 
Reading parameters from file "3.7028055999999996_GO_manual_4x64graphite.dat" ...

WARNING: "cutoff_energy" not specified, but "psinc_spacing" specified.
         Using the latter to set the KE cutoff energy to  732.32021eV,
         thus *overriding* the default.

... done

If your calculation crashes here, before "Checking processes and threads..."
is displayed, then your stack size is insufficient.
If so, use "ulimit -s unlimited" at runtime.
You can disable this check with "check_stack_size F".

Checking processes and threads...
   Determining the default number of threads...
      No default threads set at compilation time: defaulting to 1.
      OpenMP library call suggests 4 threads.
      Hybrid MPI-OpenMP compilation detected.
      Number of MPI processes > 1.
      OMP_NUM_THREADS environment variable present and
      its value matches the one obtained from the OpenMP library call.
      Using this value as default.
      Default threads: 4
      Default applies to threads_max and threads_num_fftboxes.
      Settings in the input file override this default.
   ... done

   Running with 40 MPI processes.
   There are 10 MPI processes running on the same node as the root process.
   Each MPI process is using: 
               1 threads for simulation cell FFTs.
               1 threads for parallel FFT box operations.
               4 threads for loops over batched FFT box operations.
               4 threads in other parallel regions.
... done

Basic input checks...
Resetting ngwf_cg_rotate to TRUE for EDFT calculations
... done

Reading geometry and species blocks from file "3.7028055999999996_GO_manual_4x64graphite.dat" ...
    
  PSINC grid spacing along a1 set to   0.511215680000a0 from input file.
  PSINC grid spacing along a2 set to   0.531284090000a0 from input file.
  PSINC grid spacing along a3 set to   0.507050930000a0 from input file.
  Number of PPD points along a3 set to 1.  This is 
  the default value, it may have been provided also in the input file.
... done
 Writing xyz coordinates to file "3.7028055999999996_GO_manual_4x64graphite.xyz" ... done


--------------------------------------------------------------------------------
---------------------------------- INPUT FILE ----------------------------------
--------------------------------------------------------------------------------

task : singlepoint                                                              
do_properties : true                                                            
dx_format T                                                                     
edft T                                                                          
output_detail VERBOSE                                                           
write_xyz T                                                                     
xc_functional VV10                                                              
PSINC_SPACING 0.51121568 0.53128409 0.50705093                                  
paw T                                                                           
pdos_max_l = 2                                                                  
dos_smear  0.1 eV                                                               
popn_calculate T                                                                
PDOS_PSEUDOATOMIC T                                                             
PDOS_REDUCE_SWS F                                                               
PDOS_CONSTRUCT_BASIS F                                                          
PDOS_LOWDIN T                                                                   
PDOS_ORTH_ATOM_BLOCKS F                                                         
PDOS_LCAO_OPTIMIZE F                                                            
pdos_optados_output T                                                           
homo_plot 0                                                                     
lumo_plot 0                                                                     
homo_dens_plot -1                                                               
lumo_dens_plot -1                                                               
%BLOCK SPECIES                                                                  
C C 6 4 9.0                                                                     
%ENDBLOCK SPECIES                                                               
%BLOCK SPECIES_POT                                                              
C "~/pp/paw/c_pbe_abinit.paw"                                                   
%ENDBLOCK SPECIES_POT                                                           
%BLOCK SPECIES_ATOMIC_SET                                                       
C "SOLVE conf=2s2 2p2"                                                          
%ENDBLOCK SPECIES_ATOMIC_SET                                                    
%BLOCK LATTICE_CART                                                             
32.21  0.00  0.00                                                               
0.00 18.59  0.00                                                                
0.00  0.00 69.97                                                                
%ENDBLOCK LATTICE_CART                                                          
%BLOCK POSITIONS_ABS                                                            
C  0.00  0.00  3.50                                                             
C  0.00  0.00 17.49                                                             
C  0.00  0.00 31.49                                                             
C  0.00  0.00 45.48                                                             
C  0.00  0.00 59.48                                                             
C  0.00  4.65  3.50                                                             
C  0.00  4.65 17.49                                                             
C  0.00  4.65 31.49                                                             
C  0.00  4.65 45.48                                                             
C  0.00  4.65 59.48                                                             
C  4.03  2.32  3.50                                                             
C  4.03  2.32 17.49                                                             
C  4.03  2.32 31.49                                                             
C  4.03  2.32 45.48                                                             
C  4.03  2.32 59.48                                                             
C  8.05  0.00  3.50                                                             
C  8.05  0.00 17.49                                                             
C  8.05  0.00 31.49                                                             
C  8.05  0.00 45.48                                                             
C  8.05  0.00 59.48                                                             
C  0.00  9.30  3.50                                                             
C  0.00  9.30 17.49                                                             
C  0.00  9.30 31.49                                                             
C  0.00  9.30 45.48                                                             
C  0.00  9.30 59.48                                                             
C  4.03  6.97  3.50                                                             
C  4.03  6.97 17.49                                                             
C  4.03  6.97 31.49                                                             
C  4.03  6.97 45.48                                                             
C  4.03  6.97 59.48                                                             
C  8.05  4.65  3.50                                                             
C  8.05  4.65 17.49                                                             
C  8.05  4.65 31.49                                                             
C  8.05  4.65 45.48                                                             
C  8.05  4.65 59.48                                                             
C 12.08  2.32  3.50                                                             
C 12.08  2.32 17.49                                                             
C 12.08  2.32 31.49                                                             
C 12.08  2.32 45.48                                                             
C 12.08  2.32 59.48                                                             
C 16.10  0.00  3.50                                                             
C 16.10  0.00 17.49                                                             
C 16.10  0.00 31.49                                                             
C 16.10  0.00 45.48                                                             
C 16.10  0.00 59.48                                                             
C  0.00 13.95  3.50                                                             
C  0.00 13.95 17.49                                                             
C  0.00 13.95 31.49                                                             
C  0.00 13.95 45.48                                                             
C  0.00 13.95 59.48                                                             
C  4.03 11.62  3.50                                                             
C  4.03 11.62 17.49                                                             
C  4.03 11.62 31.49                                                             
C  4.03 11.62 45.48                                                             
C  4.03 11.62 59.48                                                             
C  8.05  9.30  3.50                                                             
C  8.05  9.30 17.49                                                             
C  8.05  9.30 31.49                                                             
C  8.05  9.30 45.48                                                             
C  8.05  9.30 59.48                                                             
C 12.08  6.97  3.50                                                             
C 12.08  6.97 17.49                                                             
C 12.08  6.97 31.49                                                             
C 12.08  6.97 45.48                                                             
C 12.08  6.97 59.48                                                             
C 16.10  4.65  3.50                                                             
C 16.10  4.65 17.49                                                             
C 16.10  4.65 31.49                                                             
C 16.10  4.65 45.48                                                             
C 16.10  4.65 59.48                                                             
C 20.13  2.32  3.50                                                             
C 20.13  2.32 17.49                                                             
C 20.13  2.32 31.49                                                             
C 20.13  2.32 45.48                                                             
C 20.13  2.32 59.48                                                             
C 24.16  0.00  3.50                                                             
C 24.16  0.00 17.49                                                             
C 24.16  0.00 31.49                                                             
C 24.16  0.00 45.48                                                             
C 24.16  0.00 59.48                                                             
C  4.03 16.27  3.50                                                             
C  4.03 16.27 17.49                                                             
C  4.03 16.27 31.49                                                             
C  4.03 16.27 45.48                                                             
C  4.03 16.27 59.48                                                             
C  8.05 13.95  3.50                                                             
C  8.05 13.95 17.49                                                             
C  8.05 13.95 31.49                                                             
C  8.05 13.95 45.48                                                             
C  8.05 13.95 59.48                                                             
C 12.08 11.62  3.50                                                             
C 12.08 11.62 17.49                                                             
C 12.08 11.62 31.49                                                             
C 12.08 11.62 45.48                                                             
C 12.08 11.62 59.48                                                             
C 16.10  9.30  3.50                                                             
C 16.10  9.30 17.49                                                             
C 16.10  9.30 31.49                                                             
C 16.10  9.30 45.48                                                             
C 16.10  9.30 59.48                                                             
C 20.13  6.97  3.50                                                             
C 20.13  6.97 17.49                                                             
C 20.13  6.97 31.49                                                             
C 20.13  6.97 45.48                                                             
C 20.13  6.97 59.48                                                             
C 24.16  4.65  3.50                                                             
C 24.16  4.65 17.49                                                             
C 24.16  4.65 31.49                                                             
C 24.16  4.65 45.48                                                             
C 24.16  4.65 59.48                                                             
C 28.18  2.32  3.50                                                             
C 28.18  2.32 17.49                                                             
C 28.18  2.32 31.49                                                             
C 28.18  2.32 45.48                                                             
C 28.18  2.32 59.48                                                             
C 12.08 16.27  3.50                                                             
C 12.08 16.27 17.49                                                             
C 12.08 16.27 31.49                                                             
C 12.08 16.27 45.48                                                             
C 12.08 16.27 59.48                                                             
C 16.10 13.95  3.50                                                             
C 16.10 13.95 17.49                                                             
C 16.10 13.95 31.49                                                             
C 16.10 13.95 45.48                                                             
C 16.10 13.95 59.48                                                             
C 20.13 11.62  3.50                                                             
C 20.13 11.62 17.49                                                             
C 20.13 11.62 31.49                                                             
C 20.13 11.62 45.48                                                             
C 20.13 11.62 59.48                                                             
C 24.16  9.30  3.50                                                             
C 24.16  9.30 17.49                                                             
C 24.16  9.30 31.49                                                             
C 24.16  9.30 45.48                                                             
C 24.16  9.30 59.48                                                             
C 28.18  6.97  3.50                                                             
C 28.18  6.97 17.49                                                             
C 28.18  6.97 31.49                                                             
C 28.18  6.97 45.48                                                             
C 28.18  6.97 59.48                                                             
C 20.13 16.27  3.50                                                             
C 20.13 16.27 17.49                                                             
C 20.13 16.27 31.49                                                             
C 20.13 16.27 45.48                                                             
C 20.13 16.27 59.48                                                             
C 24.16 13.95  3.50                                                             
C 24.16 13.95 17.49                                                             
C 24.16 13.95 31.49                                                             
C 24.16 13.95 45.48                                                             
C 24.16 13.95 59.48                                                             
C 28.18 11.62  3.50                                                             
C 28.18 11.62 17.49                                                             
C 28.18 11.62 31.49                                                             
C 28.18 11.62 45.48                                                             
C 28.18 11.62 59.48                                                             
C 28.18 16.27  3.50                                                             
C 28.18 16.27 17.49                                                             
C 28.18 16.27 31.49                                                             
C 28.18 16.27 45.48                                                             
C 28.18 16.27 59.48                                                             
C  0.00  0.00 10.50                                                             
C  0.00  0.00 24.49                                                             
C  0.00  0.00 38.49                                                             
C  0.00  0.00 52.48                                                             
C  0.00  0.00 66.47                                                             
C  0.00  4.65 10.50                                                             
C  0.00  4.65 24.49                                                             
C  0.00  4.65 38.49                                                             
C  0.00  4.65 52.48                                                             
C  0.00  4.65 66.47                                                             
C  4.03  2.32 10.50                                                             
C  4.03  2.32 24.49                                                             
C  4.03  2.32 38.49                                                             
C  4.03  2.32 52.48                                                             
C  4.03  2.32 66.47                                                             
C  8.05  0.00 10.50                                                             
C  8.05  0.00 24.49                                                             
C  8.05  0.00 38.49                                                             
C  8.05  0.00 52.48                                                             
C  8.05  0.00 66.47                                                             
C  0.00  9.30 10.50                                                             
C  0.00  9.30 24.49                                                             
C  0.00  9.30 38.49                                                             
C  0.00  9.30 52.48                                                             
C  0.00  9.30 66.47                                                             
C  4.03  6.97 10.50                                                             
C  4.03  6.97 24.49                                                             
C  4.03  6.97 38.49                                                             
C  4.03  6.97 52.48                                                             
C  4.03  6.97 66.47                                                             
C  8.05  4.65 10.50                                                             
C  8.05  4.65 24.49                                                             
C  8.05  4.65 38.49                                                             
C  8.05  4.65 52.48                                                             
C  8.05  4.65 66.47                                                             
C 12.08  2.32 10.50                                                             
C 12.08  2.32 24.49                                                             
C 12.08  2.32 38.49                                                             
C 12.08  2.32 52.48                                                             
C 12.08  2.32 66.47                                                             
C 16.10  0.00 10.50                                                             
C 16.10  0.00 24.49                                                             
C 16.10  0.00 38.49                                                             
C 16.10  0.00 52.48                                                             
C 16.10  0.00 66.47                                                             
C  0.00 13.95 10.50                                                             
C  0.00 13.95 24.49                                                             
C  0.00 13.95 38.49                                                             
C  0.00 13.95 52.48                                                             
C  0.00 13.95 66.47                                                             
C  4.03 11.62 10.50                                                             
C  4.03 11.62 24.49                                                             
C  4.03 11.62 38.49                                                             
C  4.03 11.62 52.48                                                             
C  4.03 11.62 66.47                                                             
C  8.05  9.30 10.50                                                             
C  8.05  9.30 24.49                                                             
C  8.05  9.30 38.49                                                             
C  8.05  9.30 52.48                                                             
C  8.05  9.30 66.47                                                             
C 12.08  6.97 10.50                                                             
C 12.08  6.97 24.49                                                             
C 12.08  6.97 38.49                                                             
C 12.08  6.97 52.48                                                             
C 12.08  6.97 66.47                                                             
C 16.10  4.65 10.50                                                             
C 16.10  4.65 24.49                                                             
C 16.10  4.65 38.49                                                             
C 16.10  4.65 52.48                                                             
C 16.10  4.65 66.47                                                             
C 20.13  2.32 10.50                                                             
C 20.13  2.32 24.49                                                             
C 20.13  2.32 38.49                                                             
C 20.13  2.32 52.48                                                             
C 20.13  2.32 66.47                                                             
C 24.16  0.00 10.50                                                             
C 24.16  0.00 24.49                                                             
C 24.16  0.00 38.49                                                             
C 24.16  0.00 52.48                                                             
C 24.16  0.00 66.47                                                             
C  4.03 16.27 10.50                                                             
C  4.03 16.27 24.49                                                             
C  4.03 16.27 38.49                                                             
C  4.03 16.27 52.48                                                             
C  4.03 16.27 66.47                                                             
C  8.05 13.95 10.50                                                             
C  8.05 13.95 24.49                                                             
C  8.05 13.95 38.49                                                             
C  8.05 13.95 52.48                                                             
C  8.05 13.95 66.47                                                             
C 12.08 11.62 10.50                                                             
C 12.08 11.62 24.49                                                             
C 12.08 11.62 38.49                                                             
C 12.08 11.62 52.48                                                             
C 12.08 11.62 66.47                                                             
C 16.10  9.30 10.50                                                             
C 16.10  9.30 24.49                                                             
C 16.10  9.30 38.49                                                             
C 16.10  9.30 52.48                                                             
C 16.10  9.30 66.47                                                             
C 20.13  6.97 10.50                                                             
C 20.13  6.97 24.49                                                             
C 20.13  6.97 38.49                                                             
C 20.13  6.97 52.48                                                             
C 20.13  6.97 66.47                                                             
C 24.16  4.65 10.50                                                             
C 24.16  4.65 24.49                                                             
C 24.16  4.65 38.49                                                             
C 24.16  4.65 52.48                                                             
C 24.16  4.65 66.47                                                             
C 28.18  2.32 10.50                                                             
C 28.18  2.32 24.49                                                             
C 28.18  2.32 38.49                                                             
C 28.18  2.32 52.48                                                             
C 28.18  2.32 66.47                                                             
C 12.08 16.27 10.50                                                             
C 12.08 16.27 24.49                                                             
C 12.08 16.27 38.49                                                             
C 12.08 16.27 52.48                                                             
C 12.08 16.27 66.47                                                             
C 16.10 13.95 10.50                                                             
C 16.10 13.95 24.49                                                             
C 16.10 13.95 38.49                                                             
C 16.10 13.95 52.48                                                             
C 16.10 13.95 66.47                                                             
C 20.13 11.62 10.50                                                             
C 20.13 11.62 24.49                                                             
C 20.13 11.62 38.49                                                             
C 20.13 11.62 52.48                                                             
C 20.13 11.62 66.47                                                             
C 24.16  9.30 10.50                                                             
C 24.16  9.30 24.49                                                             
C 24.16  9.30 38.49                                                             
C 24.16  9.30 52.48                                                             
C 24.16  9.30 66.47                                                             
C 28.18  6.97 10.50                                                             
C 28.18  6.97 24.49                                                             
C 28.18  6.97 38.49                                                             
C 28.18  6.97 52.48                                                             
C 28.18  6.97 66.47                                                             
C 20.13 16.27 10.50                                                             
C 20.13 16.27 24.49                                                             
C 20.13 16.27 38.49                                                             
C 20.13 16.27 52.48                                                             
C 20.13 16.27 66.47                                                             
C 24.16 13.95 10.50                                                             
C 24.16 13.95 24.49                                                             
C 24.16 13.95 38.49                                                             
C 24.16 13.95 52.48                                                             
C 24.16 13.95 66.47                                                             
C 28.18 11.62 10.50                                                             
C 28.18 11.62 24.49                                                             
C 28.18 11.62 38.49                                                             
C 28.18 11.62 52.48                                                             
C 28.18 11.62 66.47                                                             
C 28.18 16.27 10.50                                                             
C 28.18 16.27 24.49                                                             
C 28.18 16.27 38.49                                                             
C 28.18 16.27 52.48                                                             
C 28.18 16.27 66.47                                                             
C  1.34  2.32  3.50                                                             
C  1.34  2.32 17.49                                                             
C  1.34  2.32 31.49                                                             
C  1.34  2.32 45.48                                                             
C  1.34  2.32 59.48                                                             
C  5.37  0.00  3.50                                                             
C  5.37  0.00 17.49                                                             
C  5.37  0.00 31.49                                                             
C  5.37  0.00 45.48                                                             
C  5.37  0.00 59.48                                                             
C  1.34  6.97  3.50                                                             
C  1.34  6.97 17.49                                                             
C  1.34  6.97 31.49                                                             
C  1.34  6.97 45.48                                                             
C  1.34  6.97 59.48                                                             
C  5.37  4.65  3.50                                                             
C  5.37  4.65 17.49                                                             
C  5.37  4.65 31.49                                                             
C  5.37  4.65 45.48                                                             
C  5.37  4.65 59.48                                                             
C  9.39  2.32  3.50                                                             
C  9.39  2.32 17.49                                                             
C  9.39  2.32 31.49                                                             
C  9.39  2.32 45.48                                                             
C  9.39  2.32 59.48                                                             
C 13.42  0.00  3.50                                                             
C 13.42  0.00 17.49                                                             
C 13.42  0.00 31.49                                                             
C 13.42  0.00 45.48                                                             
C 13.42  0.00 59.48                                                             
C  1.34 11.62  3.50                                                             
C  1.34 11.62 17.49                                                             
C  1.34 11.62 31.49                                                             
C  1.34 11.62 45.48                                                             
C  1.34 11.62 59.48                                                             
C  5.37  9.30  3.50                                                             
C  5.37  9.30 17.49                                                             
C  5.37  9.30 31.49                                                             
C  5.37  9.30 45.48                                                             
C  5.37  9.30 59.48                                                             
C  9.39  6.97  3.50                                                             
C  9.39  6.97 17.49                                                             
C  9.39  6.97 31.49                                                             
C  9.39  6.97 45.48                                                             
C  9.39  6.97 59.48                                                             
C 13.42  4.65  3.50                                                             
C 13.42  4.65 17.49                                                             
C 13.42  4.65 31.49                                                             
C 13.42  4.65 45.48                                                             
C 13.42  4.65 59.48                                                             
C 17.45  2.32  3.50                                                             
C 17.45  2.32 17.49                                                             
C 17.45  2.32 31.49                                                             
C 17.45  2.32 45.48                                                             
C 17.45  2.32 59.48                                                             
C 21.47  0.00  3.50                                                             
C 21.47  0.00 17.49                                                             
C 21.47  0.00 31.49                                                             
C 21.47  0.00 45.48                                                             
C 21.47  0.00 59.48                                                             
C  1.34 16.27  3.50                                                             
C  1.34 16.27 17.49                                                             
C  1.34 16.27 31.49                                                             
C  1.34 16.27 45.48                                                             
C  1.34 16.27 59.48                                                             
C  5.37 13.95  3.50                                                             
C  5.37 13.95 17.49                                                             
C  5.37 13.95 31.49                                                             
C  5.37 13.95 45.48                                                             
C  5.37 13.95 59.48                                                             
C  9.39 11.62  3.50                                                             
C  9.39 11.62 17.49                                                             
C  9.39 11.62 31.49                                                             
C  9.39 11.62 45.48                                                             
C  9.39 11.62 59.48                                                             
C 13.42  9.30  3.50                                                             
C 13.42  9.30 17.49                                                             
C 13.42  9.30 31.49                                                             
C 13.42  9.30 45.48                                                             
C 13.42  9.30 59.48                                                             
C 17.45  6.97  3.50                                                             
C 17.45  6.97 17.49                                                             
C 17.45  6.97 31.49                                                             
C 17.45  6.97 45.48                                                             
C 17.45  6.97 59.48                                                             
C 21.47  4.65  3.50                                                             
C 21.47  4.65 17.49                                                             
C 21.47  4.65 31.49                                                             
C 21.47  4.65 45.48                                                             
C 21.47  4.65 59.48                                                             
C 25.50  2.32  3.50                                                             
C 25.50  2.32 17.49                                                             
C 25.50  2.32 31.49                                                             
C 25.50  2.32 45.48                                                             
C 25.50  2.32 59.48                                                             
C 29.52  0.00  3.50                                                             
C 29.52  0.00 17.49                                                             
C 29.52  0.00 31.49                                                             
C 29.52  0.00 45.48                                                             
C 29.52  0.00 59.48                                                             
C  9.39 16.27  3.50                                                             
C  9.39 16.27 17.49                                                             
C  9.39 16.27 31.49                                                             
C  9.39 16.27 45.48                                                             
C  9.39 16.27 59.48                                                             
C 13.42 13.95  3.50                                                             
C 13.42 13.95 17.49                                                             
C 13.42 13.95 31.49                                                             
C 13.42 13.95 45.48                                                             
C 13.42 13.95 59.48                                                             
C 17.45 11.62  3.50                                                             
C 17.45 11.62 17.49                                                             
C 17.45 11.62 31.49                                                             
C 17.45 11.62 45.48                                                             
C 17.45 11.62 59.48                                                             
C 21.47  9.30  3.50                                                             
C 21.47  9.30 17.49                                                             
C 21.47  9.30 31.49                                                             
C 21.47  9.30 45.48                                                             
C 21.47  9.30 59.48                                                             
C 25.50  6.97  3.50                                                             
C 25.50  6.97 17.49                                                             
C 25.50  6.97 31.49                                                             
C 25.50  6.97 45.48                                                             
C 25.50  6.97 59.48                                                             
C 29.52  4.65  3.50                                                             
C 29.52  4.65 17.49                                                             
C 29.52  4.65 31.49                                                             
C 29.52  4.65 45.48                                                             
C 29.52  4.65 59.48                                                             
C 17.45 16.27  3.50                                                             
C 17.45 16.27 17.49                                                             
C 17.45 16.27 31.49                                                             
C 17.45 16.27 45.48                                                             
C 17.45 16.27 59.48                                                             
C 21.47 13.95  3.50                                                             
C 21.47 13.95 17.49                                                             
C 21.47 13.95 31.49                                                             
C 21.47 13.95 45.48                                                             
C 21.47 13.95 59.48                                                             
C 25.50 11.62  3.50                                                             
C 25.50 11.62 17.49                                                             
C 25.50 11.62 31.49                                                             
C 25.50 11.62 45.48                                                             
C 25.50 11.62 59.48                                                             
C 29.52  9.30  3.50                                                             
C 29.52  9.30 17.49                                                             
C 29.52  9.30 31.49                                                             
C 29.52  9.30 45.48                                                             
C 29.52  9.30 59.48                                                             
C 25.50 16.27  3.50                                                             
C 25.50 16.27 17.49                                                             
C 25.50 16.27 31.49                                                             
C 25.50 16.27 45.48                                                             
C 25.50 16.27 59.48                                                             
C 29.52 13.95  3.50                                                             
C 29.52 13.95 17.49                                                             
C 29.52 13.95 31.49                                                             
C 29.52 13.95 45.48                                                             
C 29.52 13.95 59.48                                                             
C  2.68  0.00 10.50                                                             
C  2.68  0.00 24.49                                                             
C  2.68  0.00 38.49                                                             
C  2.68  0.00 52.48                                                             
C  2.68  0.00 66.47                                                             
C  2.68  4.65 10.50                                                             
C  2.68  4.65 24.49                                                             
C  2.68  4.65 38.49                                                             
C  2.68  4.65 52.48                                                             
C  2.68  4.65 66.47                                                             
C  6.71  2.32 10.50                                                             
C  6.71  2.32 24.49                                                             
C  6.71  2.32 38.49                                                             
C  6.71  2.32 52.48                                                             
C  6.71  2.32 66.47                                                             
C 10.74  0.00 10.50                                                             
C 10.74  0.00 24.49                                                             
C 10.74  0.00 38.49                                                             
C 10.74  0.00 52.48                                                             
C 10.74  0.00 66.47                                                             
C  2.68  9.30 10.50                                                             
C  2.68  9.30 24.49                                                             
C  2.68  9.30 38.49                                                             
C  2.68  9.30 52.48                                                             
C  2.68  9.30 66.47                                                             
C  6.71  6.97 10.50                                                             
C  6.71  6.97 24.49                                                             
C  6.71  6.97 38.49                                                             
C  6.71  6.97 52.48                                                             
C  6.71  6.97 66.47                                                             
C 10.74  4.65 10.50                                                             
C 10.74  4.65 24.49                                                             
C 10.74  4.65 38.49                                                             
C 10.74  4.65 52.48                                                             
C 10.74  4.65 66.47                                                             
C 14.76  2.32 10.50                                                             
C 14.76  2.32 24.49                                                             
C 14.76  2.32 38.49                                                             
C 14.76  2.32 52.48                                                             
C 14.76  2.32 66.47                                                             
C 18.79  0.00 10.50                                                             
C 18.79  0.00 24.49                                                             
C 18.79  0.00 38.49                                                             
C 18.79  0.00 52.48                                                             
C 18.79  0.00 66.47                                                             
C  2.68 13.95 10.50                                                             
C  2.68 13.95 24.49                                                             
C  2.68 13.95 38.49                                                             
C  2.68 13.95 52.48                                                             
C  2.68 13.95 66.47                                                             
C  6.71 11.62 10.50                                                             
C  6.71 11.62 24.49                                                             
C  6.71 11.62 38.49                                                             
C  6.71 11.62 52.48                                                             
C  6.71 11.62 66.47                                                             
C 10.74  9.30 10.50                                                             
C 10.74  9.30 24.49                                                             
C 10.74  9.30 38.49                                                             
C 10.74  9.30 52.48                                                             
C 10.74  9.30 66.47                                                             
C 14.76  6.97 10.50                                                             
C 14.76  6.97 24.49                                                             
C 14.76  6.97 38.49                                                             
C 14.76  6.97 52.48                                                             
C 14.76  6.97 66.47                                                             
C 18.79  4.65 10.50                                                             
C 18.79  4.65 24.49                                                             
C 18.79  4.65 38.49                                                             
C 18.79  4.65 52.48                                                             
C 18.79  4.65 66.47                                                             
C 22.81  2.32 10.50                                                             
C 22.81  2.32 24.49                                                             
C 22.81  2.32 38.49                                                             
C 22.81  2.32 52.48                                                             
C 22.81  2.32 66.47                                                             
C 26.84  0.00 10.50                                                             
C 26.84  0.00 24.49                                                             
C 26.84  0.00 38.49                                                             
C 26.84  0.00 52.48                                                             
C 26.84  0.00 66.47                                                             
C  6.71 16.27 10.50                                                             
C  6.71 16.27 24.49                                                             
C  6.71 16.27 38.49                                                             
C  6.71 16.27 52.48                                                             
C  6.71 16.27 66.47                                                             
C 10.74 13.95 10.50                                                             
C 10.74 13.95 24.49                                                             
C 10.74 13.95 38.49                                                             
C 10.74 13.95 52.48                                                             
C 10.74 13.95 66.47                                                             
C 14.76 11.62 10.50                                                             
C 14.76 11.62 24.49                                                             
C 14.76 11.62 38.49                                                             
C 14.76 11.62 52.48                                                             
C 14.76 11.62 66.47                                                             
C 18.79  9.30 10.50                                                             
C 18.79  9.30 24.49                                                             
C 18.79  9.30 38.49                                                             
C 18.79  9.30 52.48                                                             
C 18.79  9.30 66.47                                                             
C 22.81  6.97 10.50                                                             
C 22.81  6.97 24.49                                                             
C 22.81  6.97 38.49                                                             
C 22.81  6.97 52.48                                                             
C 22.81  6.97 66.47                                                             
C 26.84  4.65 10.50                                                             
C 26.84  4.65 24.49                                                             
C 26.84  4.65 38.49                                                             
C 26.84  4.65 52.48                                                             
C 26.84  4.65 66.47                                                             
C 30.86  2.32 10.50                                                             
C 30.86  2.32 24.49                                                             
C 30.86  2.32 38.49                                                             
C 30.86  2.32 52.48                                                             
C 30.86  2.32 66.47                                                             
C 14.76 16.27 10.50                                                             
C 14.76 16.27 24.49                                                             
C 14.76 16.27 38.49                                                             
C 14.76 16.27 52.48                                                             
C 14.76 16.27 66.47                                                             
C 18.79 13.95 10.50                                                             
C 18.79 13.95 24.49                                                             
C 18.79 13.95 38.49                                                             
C 18.79 13.95 52.48                                                             
C 18.79 13.95 66.47                                                             
C 22.81 11.62 10.50                                                             
C 22.81 11.62 24.49                                                             
C 22.81 11.62 38.49                                                             
C 22.81 11.62 52.48                                                             
C 22.81 11.62 66.47                                                             
C 26.84  9.30 10.50                                                             
C 26.84  9.30 24.49                                                             
C 26.84  9.30 38.49                                                             
C 26.84  9.30 52.48                                                             
C 26.84  9.30 66.47                                                             
C 30.86  6.97 10.50                                                             
C 30.86  6.97 24.49                                                             
C 30.86  6.97 38.49                                                             
C 30.86  6.97 52.48                                                             
C 30.86  6.97 66.47                                                             
C 22.81 16.27 10.50                                                             
C 22.81 16.27 24.49                                                             
C 22.81 16.27 38.49                                                             
C 22.81 16.27 52.48                                                             
C 22.81 16.27 66.47                                                             
C 26.84 13.95 10.50                                                             
C 26.84 13.95 24.49                                                             
C 26.84 13.95 38.49                                                             
C 26.84 13.95 52.48                                                             
C 26.84 13.95 66.47                                                             
C 30.86 11.62 10.50                                                             
C 30.86 11.62 24.49                                                             
C 30.86 11.62 38.49                                                             
C 30.86 11.62 52.48                                                             
C 30.86 11.62 66.47                                                             
C 30.86 16.27 10.50                                                             
C 30.86 16.27 24.49                                                             
C 30.86 16.27 38.49                                                             
C 30.86 16.27 52.48                                                             
C 30.86 16.27 66.47                                                             
%ENDBLOCK POSITIONS_ABS                                                         

--------------------------------------------------------------------------------
-------------------------------- END INPUT FILE --------------------------------
--------------------------------------------------------------------------------


 
<<<<<<<<<<<<<<<<<<<<<<<<<<<<<<<<< Full system >>>>>>>>>>>>>>>>>>>>>>>>>>>>>>>>>>
<<<<<<<<<<<<<<<<<<<<<<<<<<< PAW Dataset information >>>>>>>>>>>>>>>>>>>>>>>>>>>
File: ~/pp/paw/c_pbe_abinit.paw; rc = 1.25 bohr; shape type =  3; rshape = 1.25 bohr;
  Atomic number:  6;  ionic charge:  4.000000
    Partial Wave 1: l = 0
    Partial Wave 2: l = 0
    Partial Wave 3: l = 1
    Partial Wave 4: l = 1
  Core charge supplied for Nonlinear Core Corrections
<<<<<<<<<<<<<<<<<<<<<<<<<<<<<<<<<<<<<<< >>>>>>>>>>>>>>>>>>>>>>>>>>>>>>>>>>>>>>>

-------------------------- Atom counting information ---------------------------
Symbol    Natoms    Nngwfs    Nprojs
  C        640      2560      5120
.......   ......    ......    ......
Totals:    640      2560      5120
--------------------------------------------------------------------------------

=============================== PSINC grid sizes ===============================
                      Simulation cell:   63 x  35 x 138
                              FFT-box:   63 x  35 x 117
                                  PPD:    7 x   5 x   1
Grid space d1=  0.511269841270a0 (KE cutoff=  29.06054Eh = 790.77748eV)
Grid space d2=  0.531142857143a0 (KE cutoff=  26.92659Eh = 732.70972eV)
Grid space d3=  0.507028985507a0 (KE cutoff=  29.54870Eh = 804.06113eV)
================================================================================
  
WARNING in cell_grid_distribute:
Average of less than one 23-slab per node, so workload cannot be
equally balanced between nodes.

********************* Fourier parallelisation information **********************
       Coarse grid (whole simulation cell) dimensions:     63    35   138
          Real-space ('12') slabs/node (min max mean):      3     4     3
         Recip-space ('23') slabs/node (min max mean):      0     1     0
********************************************************************************

********************* Fourier parallelisation information **********************
       Double grid (whole simulation cell) dimensions:    126    70   276
          Real-space ('12') slabs/node (min max mean):      6     7     6
         Recip-space ('23') slabs/node (min max mean):      1     2     1
********************************************************************************

Atom SCF Calculation for C  : Z (AE atom) =   6 : Z (PS atom) =   4
Config String: 2s2 2p2
Orbitals (num,occ):  2     2.00 2.00
Orbitals   (num,l):  2        0    1
Real-space Grid (nr,dr,rmax): 1293    0.0069659443    9.0000000000
Spherical Bessel Basis (nsws,lmax,cutoff):   37    2  161.4736382572
Confining potential (l,width,scale):  0    3.0000000000  100.0000000000
Confining potential (l,width,scale):  1    3.0000000000  100.0000000000
  1         -5.4283124456   -1.2935102156    4.5135257941   -1.5923561795
  2         -5.4241534249   -1.3636937911    4.4427183619   -1.5694122055
  3         -5.4326289545   -1.3865748334    4.4195613881   -1.5634604620
  4         -5.4368073263   -1.3933479911    4.4127833993   -1.5619680687
  5         -5.4388652800   -1.3969668505    4.4091714945   -1.5612108736
  6         -5.4399077146   -1.3988848872    4.4072644158   -1.5608235486
  7         -5.4404434041   -1.3998980658    4.4062615348   -1.5606243010
  8         -5.4407208401   -1.4004325328    4.4057350952   -1.5605214507
  9         -5.4408651553   -1.4007143559    4.4054589454   -1.5604682523
 10         -5.4409404127   -1.4008629743    4.4053141024   -1.5604407028
 11         -5.4409797152   -1.4009413770    4.4052381126   -1.5604264250
 12         -5.4410002582   -1.4009827603    4.4051982277   -1.5604190215
 13         -5.4410110012   -1.4010046176    4.4051772812   -1.5604151811
 14         -5.4410166211   -1.4010161701    4.4051662735   -1.5604131883
 15         -5.4410195614   -1.4010222805    4.4051604845   -1.5604121539
 16         -5.4410211001   -1.4010255150    4.4051574379   -1.5604116169
 17         -5.4410219052   -1.4010272285    4.4051558332   -1.5604113379
 18         -5.4410223266   -1.4010281369    4.4051549874   -1.5604111930
 19         -5.4410225472   -1.4010286190    4.4051545411   -1.5604111177
 20         -5.4410226626   -1.4010288749    4.4051543055   -1.5604110786
 21         -5.4410227231   -1.4010290110    4.4051541810   -1.5604110582
Atom SCF converged after  21 iterations to a total energy of     -5.44102272

Determining parallel strategy ...
... using space-filling curve
... NGWF load balancing: max     64;  min     64;  average     64
... Projector load balancing: max    128;  min    128;  average    128
... done
Calculating Ewald energy ...
              Ewald: real-space energy =    9483.102382
        Ewald: reciprocal-space energy =       0.311989
         Ewald: (sum_charge)**2 Energy =   10947.861153
         Ewald: (sum_charge**2) Energy =     865.504419
                          Ewald Energy =   -2329.951200
Basis initialisation ...... NGWF spheres initialised
... Projector spheres initialised
... NGWF tight boxes initialised
... Projector tight boxes initialised
... Tight-boxes gathered
... NGWF basis size (local,global):     692372  27907488
... PAW projector initialisation
... done

============================= Charge Augmentation ==============================
                           Aug box size:   11 x  11 x  11
================================================================================

========================== Sparse matrix information ===========================
                        Overlap matrix filling:  40.94%
                        Density kernel filling: 100.00%
              NGWF-Proj overlap matrix filling:  12.19%
                    Aug Overlap matrix filling:  47.03%
                    Hamiltonian matrix filling:  47.03%
                  NGWF diagonal matrix filling:   0.16%
                             KS matrix filling: 100.00% 
                           KSKS matrix filling: 100.00% 
================================================================================

Sparse matrix initialisation ... done
NGWF initialisation ...... done
============ Calculation of NGWF S^-1 using Hotelling algorithm ================ 
         Iteration  |  Frobenius norm and Maximum abs value    (of I-S*S_n^-1)   
               1       0.48966215E+02     0.97479438E+00
               2       0.47675878E+02     0.95143843E+00
               3       0.45760376E+02     0.90941611E+00
               4       0.43304612E+02     0.83974802E+00
               5       0.40385349E+02     0.73695454E+00
               6       0.37028635E+02     0.67364364E+00
               7       0.33580828E+02     0.62713642E+00
               8       0.30287733E+02     0.58794324E+00
               9       0.26700421E+02     0.54327047E+00
              10       0.22119577E+02     0.47200848E+00
              11       0.16168218E+02     0.35967914E+00
              12       0.94104158E+01     0.21415192E+00
              13       0.36660351E+01     0.81328459E-01
              14       0.66514253E+00     0.13525398E-01
              15       0.25928571E-01     0.45911463E-03
              16       0.50427878E-04     0.67666990E-06
              17       0.28911297E-09     0.23631097E-11
              18       0.70539541E-13     0.35527137E-14
================================================================================
Calculating core density ...
================================= Core Density =================================
               Core den box size:   21 x  21 x  21
================================================================================
 ... done
Up spin density kernel initialisation ...... done

Writing density kernel to file "3.7028055999999996_GO_manual_4x64graphite.dkn" ... done

>>> Optimising kernel for current NGWFs:

--------------------------- Ensemble-DFT optimisation --------------------------
Running ScaLAPACK on   40 processor(s).

--------------------------------------------------------------------------------
  Iter                              Commutator    Free_energy(A=E-TS)     DeltaA
#    0                          0.000029560908   -3650.01520182690228  -3.65E+03

Step                       =       0.381966011250
Energy                     =   -3650.015172991648
Entropy (-TS)              =      -0.000028835258
Free energy (A=E-TS)       =   -3650.015201826902
Est. 0K Energy 0.5*(E+A)   =   -3650.015187409275
Residual Non-orthogonality =       0.000000000000
Residual N_electrons       =       0.000000000002

Spin          Integrated_Ne            Fermi_level     Delta_Fermi_level
   1      2559.999999999989         0.167107959823              1.67E-01

                           Spin 1          
     Orb      H-eigenvalues     Occupancies
       1 |    -0.5545193960    1.0000000000 | 
                          ------
    1276 |     0.1323420752    0.9999829305 | 
    1277 |     0.1329587373    0.9999792610 | 
    1278 |     0.1329690272    0.9999791935 | 
    1279 |     0.1330983847    0.9999783260 | 
    1280 |     0.1337252097    0.9999735820 | 
                 - Gap at zero temperature -
    1281 |     0.2029162614    0.0000122819 | 
    1282 |     0.2029234485    0.0000122541 | 
    1283 |     0.2029286140    0.0000122341 | 
    1284 |     0.2030852853    0.0000116436 | 
    1285 |     0.2031059003    0.0000115681 | 
                          ------
    2560 |     0.9996138518    0.0000000000 | 

                       |  Abs_value |  Threshold | Converged
     Delta_Free_energy |   3.65E+03 |   1.00E-06 |        No
     Delta_Energy      |   3.65E+03 |   1.00E-04 |        No
     Delta_Entropy     |   2.88E-05 |   1.00E-04 |       Yes
     Commutator        |   2.96E-05 |   1.00E-05 |        No
     Delta_Fermi_level |   1.67E-01 |   1.00E-03 |        No

  Line search of the free energy minimum:
  Step_type        Step             Free_energy   Predicted_free_energy
.   Initial    0.000000    -3650.01520182690228
.    Trial1    0.381966    -3650.01617523728419
.    Trial2    0.618034    -3650.01627473611188
. Quadratic    0.561236    -3650.01628578151622    -3650.01628583820093

--------------------------------------------------------------------------------
  Iter                              Commutator    Free_energy(A=E-TS)     DeltaA
#    1                          0.000017415173   -3650.01628578151622  -1.08E-03

Step                       =       0.561236235735
Energy                     =   -3650.016256837415
Entropy (-TS)              =      -0.000028944268
Free energy (A=E-TS)       =   -3650.016285781516
Est. 0K Energy 0.5*(E+A)   =   -3650.016271309466
Residual Non-orthogonality =       0.000000000000
Residual N_electrons       =       0.000000000167

Spin          Integrated_Ne            Fermi_level     Delta_Fermi_level
   1      2559.999999998993         0.165786637259             -1.32E-03

                           Spin 1          
     Orb      H-eigenvalues     Occupancies
       1 |    -0.5573103864    1.0000000000 | 
                          ------
    1276 |     0.1310996002    0.9999825001 | 
    1277 |     0.1315584627    0.9999797716 | 
    1278 |     0.1315795176    0.9999796367 | 
    1279 |     0.1318410077    0.9999778839 | 
    1280 |     0.1323205651    0.9999742680 | 
                 - Gap at zero temperature -
    1281 |     0.2015178051    0.0000125848 | 
    1282 |     0.2015294972    0.0000125384 | 
    1283 |     0.2015489319    0.0000124617 | 
    1284 |     0.2016983038    0.0000118875 | 
    1285 |     0.2017229996    0.0000117952 | 
                          ------
    2560 |     0.9970923141    0.0000000000 | 

                       |  Abs_value |  Threshold | Converged
     Delta_Free_energy |   1.08E-03 |   1.00E-06 |        No
     Delta_Energy      |   1.08E-03 |   1.00E-04 |        No
     Delta_Entropy     |   1.09E-07 |   1.00E-04 |       Yes
     Commutator        |   1.74E-05 |   1.00E-05 |        No
     Delta_Fermi_level |   1.32E-03 |   1.00E-03 |        No

  Line search of the free energy minimum:
  Step_type        Step             Free_energy   Predicted_free_energy
.   Initial    0.000000    -3650.01628578151622
.    Trial1    0.561236    -3650.01616375791218
.    Trial2    0.214373    -3650.01656019853272
. Quadratic    0.255438    -3650.01656746260733    -3650.01656747889774

--------------------------------------------------------------------------------
  Iter                              Commutator    Free_energy(A=E-TS)     DeltaA
#    2                          0.000009466948   -3650.01656746260733  -2.82E-04

Step                       =       0.255438068243
Energy                     =   -3650.016538506093
Entropy (-TS)              =      -0.000028956456
Free energy (A=E-TS)       =   -3650.016567462607
Est. 0K Energy 0.5*(E+A)   =   -3650.016552984350
Residual Non-orthogonality =       0.000000000000
Residual N_electrons       =      -0.000000000058

Spin          Integrated_Ne            Fermi_level     Delta_Fermi_level
   1      2560.000000000351         0.165523916365             -2.63E-04

                           Spin 1          
     Orb      H-eigenvalues     Occupancies
       1 |    -0.5578702024    1.0000000000 | 
                          ------
    1276 |     0.1308112037    0.9999826415 | 
    1277 |     0.1313107329    0.9999796756 | 
    1278 |     0.1313371104    0.9999795056 | 
    1279 |     0.1315469058    0.9999781020 | 
    1280 |     0.1320725025    0.9999741486 | 
                 - Gap at zero temperature -
    1281 |     0.2012697216    0.0000125267 | 
    1282 |     0.2012821448    0.0000124777 | 
    1283 |     0.2013058400    0.0000123847 | 
    1284 |     0.2014572470    0.0000118065 | 
    1285 |     0.2014819194    0.0000117149 | 
                          ------
    2560 |     0.9965824909    0.0000000000 | 

                       |  Abs_value |  Threshold | Converged
     Delta_Free_energy |   2.82E-04 |   1.00E-06 |        No
     Delta_Energy      |   2.82E-04 |   1.00E-04 |        No
     Delta_Entropy     |   1.22E-08 |   1.00E-04 |       Yes
     Commutator        |   9.47E-06 |   1.00E-05 |       Yes
     Delta_Fermi_level |   2.63E-04 |   1.00E-03 |       Yes

  Line search of the free energy minimum:
  Step_type        Step             Free_energy   Predicted_free_energy
.   Initial    0.000000    -3650.01656746260733
.    Trial1    0.255438    -3650.01664673483219
.    Trial2    0.539835    -3650.01664947400832
. Quadratic    0.406282    -3650.01665940541307    -3650.01665940954490

--------------------------------------------------------------------------------
  Iter                              Commutator    Free_energy(A=E-TS)     DeltaA
#    3                          0.000006537731   -3650.01665940541307  -9.19E-05

Step                       =       0.406282092372
Energy                     =   -3650.016630438143
Entropy (-TS)              =      -0.000028967337
Free energy (A=E-TS)       =   -3650.016659405413
Est. 0K Energy 0.5*(E+A)   =   -3650.016644921778
Residual Non-orthogonality =       0.000000000000
Residual N_electrons       =       0.000000000067

Spin          Integrated_Ne            Fermi_level     Delta_Fermi_level
   1      2559.999999999596         0.165211232749             -3.13E-04

                           Spin 1          
     Orb      H-eigenvalues     Occupancies
       1 |    -0.5585242532    1.0000000000 | 
                          ------
    1276 |     0.1304869706    0.9999827046 | 
    1277 |     0.1309996834    0.9999796651 | 
    1278 |     0.1310322730    0.9999794548 | 
    1279 |     0.1312164865    0.9999782243 | 
    1280 |     0.1317615094    0.9999741348 | 
                 - Gap at zero temperature -
    1281 |     0.2009609503    0.0000125113 | 
    1282 |     0.2009743511    0.0000124584 | 
    1283 |     0.2010030293    0.0000123461 | 
    1284 |     0.2011550838    0.0000117673 | 
    1285 |     0.2011797706    0.0000116760 | 
                          ------
    2560 |     0.9959980160    0.0000000000 | 

                       |  Abs_value |  Threshold | Converged
     Delta_Free_energy |   9.19E-05 |   1.00E-06 |        No
     Delta_Energy      |   9.19E-05 |   1.00E-04 |       Yes
     Delta_Entropy     |   1.09E-08 |   1.00E-04 |       Yes
     Commutator        |   6.54E-06 |   1.00E-05 |       Yes
     Delta_Fermi_level |   3.13E-04 |   1.00E-03 |       Yes

  Line search of the free energy minimum:
  Step_type        Step             Free_energy   Predicted_free_energy
.   Initial    0.000000    -3650.01665940541307
.    Trial1    0.406282    -3650.01668578069666
.    Trial2    0.633062    -3650.01661861437924
. Quadratic    0.260048    -3650.01669798183502    -3650.01669797811064

--------------------------------------------------------------------------------
  Iter                              Commutator    Free_energy(A=E-TS)     DeltaA
#    4                          0.000004081787   -3650.01669798183502  -3.86E-05

Step                       =       0.260048267754
Energy                     =   -3650.016669010833
Entropy (-TS)              =      -0.000028971093
[...]
 C   273 -- C   553       -0.10      5.37000
 C   272 -- C   552       -0.10      5.37000
 C   271 -- C   551       -0.10      5.37000
 C   270 -- C   550       -0.10      5.37000
 C   269 -- C   549       -0.10      5.37000
 C   268 -- C   548       -0.10      5.37000
 C   267 -- C   547       -0.10      5.37000
 C   266 -- C   546       -0.10      5.37000
 C   130 -- C   465       -0.10      5.37000
 C   129 -- C   464       -0.10      5.37000
 C   128 -- C   463       -0.10      5.37000
 C   127 -- C   462       -0.10      5.37000
 C   126 -- C   461       -0.10      5.37000
 C   240 -- C   525       -0.10      5.37000
 C   239 -- C   524       -0.10      5.37000
 C   238 -- C   523       -0.10      5.37000
 C   237 -- C   522       -0.10      5.37000
 C   236 -- C   521       -0.10      5.37000
 C    23 -- C   478       -0.09      5.37202
 C    49 -- C   469       -0.09      5.37202
 C    48 -- C   468       -0.09      5.37202
 C    47 -- C   467       -0.09      5.37202
 C    22 -- C   477       -0.09      5.37202
 C    46 -- C   466       -0.09      5.37202
 C    21 -- C   476       -0.09      5.37202
 C    25 -- C   480       -0.09      5.37202
 C    24 -- C   479       -0.09      5.37202
 C    50 -- C   470       -0.09      5.37202
 C    24 -- C   449       -0.09      5.37202
 C     6 -- C   416       -0.09      5.37202
 C    23 -- C   448       -0.09      5.37202
 C    22 -- C   447       -0.09      5.37202
 C    10 -- C   470       -0.09      5.37202
 C     5 -- C   450       -0.09      5.37202
 C    21 -- C   446       -0.09      5.37202
 C    10 -- C   420       -0.09      5.37202
 C     9 -- C   469       -0.09      5.37202
 C     9 -- C   419       -0.09      5.37202
 C     8 -- C   468       -0.09      5.37202
 C     4 -- C   449       -0.09      5.37202
 C     8 -- C   418       -0.09      5.37202
 C     2 -- C   447       -0.09      5.37202
 C     7 -- C   467       -0.09      5.37202
 C     7 -- C   417       -0.09      5.37202
 C     1 -- C   446       -0.09      5.37202
 C     6 -- C   466       -0.09      5.37202
 C    25 -- C   450       -0.09      5.37202
 C     3 -- C   448       -0.09      5.37202
 C   285 -- C   580       -0.09      5.37202
 C   284 -- C   579       -0.09      5.37202
 C   283 -- C   578       -0.09      5.37202
 C   282 -- C   577       -0.09      5.37202
 C   281 -- C   576       -0.09      5.37202
 C   260 -- C   605       -0.09      5.37202
 C   259 -- C   604       -0.09      5.37202
 C   258 -- C   603       -0.09      5.37202
 C   257 -- C   602       -0.09      5.37202
 C   256 -- C   601       -0.09      5.37202
 C   219 -- C   569       -0.09      5.37202
 C   218 -- C   568       -0.09      5.37202
 C   217 -- C   567       -0.09      5.37202
 C   216 -- C   566       -0.09      5.37202
 C   250 -- C   540       -0.09      5.37202
 C   249 -- C   539       -0.09      5.37202
 C   248 -- C   538       -0.09      5.37202
 C   247 -- C   537       -0.09      5.37202
 C   246 -- C   536       -0.09      5.37202
 C   220 -- C   570       -0.09      5.37202
 C   205 -- C   550       -0.09      5.37202
 C   204 -- C   549       -0.09      5.37202
 C   203 -- C   548       -0.09      5.37202
 C   202 -- C   547       -0.09      5.37202
 C   201 -- C   546       -0.09      5.37202
 C   260 -- C   550       -0.09      5.37202
 C   259 -- C   549       -0.09      5.37202
 C   258 -- C   548       -0.09      5.37202
 C   257 -- C   547       -0.09      5.37202
 C   256 -- C   546       -0.09      5.37202
 C   230 -- C   580       -0.09      5.37202
 C   230 -- C   525       -0.09      5.37202
 C   229 -- C   579       -0.09      5.37202
 C   229 -- C   524       -0.09      5.37202
 C   228 -- C   578       -0.09      5.37202
 C   228 -- C   523       -0.09      5.37202
 C   227 -- C   577       -0.09      5.37202
 C   227 -- C   522       -0.09      5.37202
 C   226 -- C   576       -0.09      5.37202
 C   226 -- C   521       -0.09      5.37202
 C   220 -- C   515       -0.09      5.37202
 C   219 -- C   514       -0.09      5.37202
 C   218 -- C   513       -0.09      5.37202
 C   217 -- C   512       -0.09      5.37202
 C   216 -- C   511       -0.09      5.37202
 C    11 -- C   331       -0.09      5.37202
 C   195 -- C   540       -0.09      5.37202
 C   195 -- C   500       -0.09      5.37202
 C   194 -- C   539       -0.09      5.37202
 C   194 -- C   499       -0.09      5.37202
 C   193 -- C   538       -0.09      5.37202
 C   193 -- C   498       -0.09      5.37202
 C   192 -- C   537       -0.09      5.37202
 C   192 -- C   497       -0.09      5.37202
 C   191 -- C   536       -0.09      5.37202
 C   191 -- C   496       -0.09      5.37202
 C   180 -- C   515       -0.09      5.37202
 C    40 -- C   365       -0.09      5.37202
 C   179 -- C   514       -0.09      5.37202
 C   178 -- C   513       -0.09      5.37202
 C   177 -- C   512       -0.09      5.37202
 C    39 -- C   364       -0.09      5.37202
 C   176 -- C   511       -0.09      5.37202
 C    38 -- C   363       -0.09      5.37202
 C    37 -- C   362       -0.09      5.37202
 C    36 -- C   361       -0.09      5.37202
 C   150 -- C   440       -0.09      5.37202
 C   149 -- C   439       -0.09      5.37202
 C   148 -- C   438       -0.09      5.37202
 C   147 -- C   437       -0.09      5.37202
 C   146 -- C   436       -0.09      5.37202
 C    15 -- C   335       -0.09      5.37202
 C    65 -- C   345       -0.09      5.37202
 C    64 -- C   344       -0.09      5.37202
 C   135 -- C   460       -0.09      5.37202
 C    63 -- C   343       -0.09      5.37202
 C   134 -- C   459       -0.09      5.37202
 C    30 -- C   325       -0.09      5.37202
 C   133 -- C   458       -0.09      5.37202
 C    62 -- C   342       -0.09      5.37202
 C    14 -- C   334       -0.09      5.37202
 C   132 -- C   457       -0.09      5.37202
 C   131 -- C   456       -0.09      5.37202
 C    61 -- C   341       -0.09      5.37202
 C    29 -- C   324       -0.09      5.37202
 C    28 -- C   323       -0.09      5.37202
 C    13 -- C   333       -0.09      5.37202
 C    27 -- C   322       -0.09      5.37202
 C    26 -- C   321       -0.09      5.37202
 C    12 -- C   332       -0.09      5.37202
 C    95 -- C   365       -0.10      5.37202
 C    94 -- C   364       -0.10      5.37202
 C    93 -- C   363       -0.09      5.37202
 C    92 -- C   362       -0.10      5.37202
 C    91 -- C   361       -0.09      5.37202
 C    65 -- C   395       -0.10      5.37202
 C    64 -- C   394       -0.10      5.37202
 C    63 -- C   393       -0.09      5.37202
 C    30 -- C   355       -0.10      5.37202
 C    62 -- C   392       -0.10      5.37202
 C    61 -- C   391       -0.09      5.37202
 C    29 -- C   354       -0.10      5.37202
 C    28 -- C   353       -0.09      5.37202
 C    27 -- C   352       -0.10      5.37202
 C    26 -- C   351       -0.10      5.37202
 C    55 -- C   335       -0.09      5.37202
 C    54 -- C   334       -0.09      5.37202
 C    53 -- C   333       -0.09      5.37202
 C    52 -- C   332       -0.10      5.37202
 C    51 -- C   331       -0.09      5.37202
 C    95 -- C   425       -0.09      5.37202
 C    94 -- C   424       -0.09      5.37202
 C    93 -- C   423       -0.09      5.37202
 C    92 -- C   422       -0.09      5.37202
 C    91 -- C   421       -0.09      5.37202
 C    85 -- C   355       -0.09      5.37202
 C    84 -- C   354       -0.09      5.37202
 C    83 -- C   353       -0.09      5.37202
 C    82 -- C   352       -0.09      5.37202
 C    81 -- C   351       -0.09      5.37202
 C   120 -- C   395       -0.09      5.37202
 C    55 -- C   385       -0.09      5.37202
 C   119 -- C   394       -0.09      5.37202
 C   118 -- C   393       -0.09      5.37202
 C   117 -- C   392       -0.09      5.37202
 C    54 -- C   384       -0.09      5.37202
 C   116 -- C   391       -0.09      5.37202
 C    53 -- C   383       -0.09      5.37202
 C    52 -- C   382       -0.09      5.37202
 C    51 -- C   381       -0.09      5.37202
 C   106 -- C   436       -0.09      5.37202
 C   106 -- C   376       -0.09      5.37202
 C    80 -- C   410       -0.09      5.37202
 C    79 -- C   409       -0.09      5.37202
 C    78 -- C   408       -0.09      5.37202
 C    77 -- C   407       -0.09      5.37202
 C    76 -- C   406       -0.09      5.37202
 C   135 -- C   410       -0.09      5.37202
 C   134 -- C   409       -0.09      5.37202
 C   133 -- C   408       -0.09      5.37202
 C   132 -- C   407       -0.09      5.37202
 C   131 -- C   406       -0.09      5.37202
 C   110 -- C   440       -0.09      5.37202
 C   110 -- C   380       -0.09      5.37202
 C   109 -- C   439       -0.09      5.37202
 C   109 -- C   379       -0.09      5.37202
 C   108 -- C   438       -0.09      5.37202
 C   108 -- C   378       -0.09      5.37202
 C   107 -- C   437       -0.09      5.37202
 C   107 -- C   377       -0.09      5.37202
 C   215 -- C   635       -0.10      5.38000
 C   214 -- C   634       -0.10      5.38000
 C   213 -- C   633       -0.10      5.38000
 C   212 -- C   632       -0.10      5.38000
 C   211 -- C   631       -0.10      5.38000
 C   190 -- C   620       -0.10      5.38000
 C   189 -- C   619       -0.10      5.38000
 C   188 -- C   618       -0.10      5.38000
 C   187 -- C   617       -0.10      5.38000
 C   186 -- C   616       -0.10      5.38000
 C   175 -- C   595       -0.10      5.38000
 C   174 -- C   594       -0.10      5.38000
 C   173 -- C   593       -0.10      5.38000
 C   172 -- C   592       -0.10      5.38000
 C   171 -- C   591       -0.10      5.38000
 C   245 -- C   640       -0.10      5.38000
 C   244 -- C   639       -0.10      5.38000
 C   243 -- C   638       -0.10      5.38000
 C   242 -- C   637       -0.10      5.38000
 C   241 -- C   636       -0.10      5.38000
==================================================


=================== Orbital energy and occupancy information ===================

      Total number of orbitals:    2560
        Occupancy sum (kernel):    1280.000000000
   Occupancy sum (eigenvalues):    1280.000000000
                 HOMO-LUMO gap:       0.065972803 Eh
                 Mid-gap level:       0.221286766 Eh

                        Orbital | Energy (Eh) | Occupancy
                            1    -0.498897774   1.0000000
                        .......   ...........   .........
                         1271     0.183877163   0.9999885
                         1272     0.183938518   0.9999883
                         1273     0.184348615   0.9999867
                         1274     0.184410107   0.9999864
                         1275     0.186888093   0.9999703
                         1276     0.186891123   0.9999703
                         1277     0.187356844   0.9999656
                         1278     0.187359926   0.9999656
                         1279     0.187834780   0.9999600
                         1280     0.188300365   0.9999537
                        ....... -- gap at 0K -- .........
                         1281     0.254273168   0.0000193
                         1282     0.254319408   0.0000191
                         1283     0.254521339   0.0000179
                         1284     0.254567655   0.0000176
                         1285     0.254719403   0.0000168
                         1286     0.254724546   0.0000168
                         1287     0.254960617   0.0000156
                         1288     0.254978702   0.0000155
                         1289     0.254983568   0.0000155
                         1290     0.255007448   0.0000153
                        .......   ...........   .........
                         2560     1.112140855   0.0000000

================================================================================

===================== Writing canonical molecular orbitals =====================
| Orbital  Energy (eV)  Norm     |
| HOMO      5.12391365  1.000000 | Writing "3.7028055999999996_GO_manual_4x64graphite_HOMO.cube" ... done
Writing "3.7028055999999996_GO_manual_4x64graphite_HOMO.dx" ... done
| LUMO      6.91912497  1.000000 | Writing "3.7028055999999996_GO_manual_4x64graphite_LUMO.cube" ... done
Writing "3.7028055999999996_GO_manual_4x64graphite_LUMO.dx" ... done
================================================================================
 
===================== Density of States (DOS) calculation ======================
Writing "3.7028055999999996_GO_manual_4x64graphite_DOS.txt" ...  done
================================================================================
 
Writing bands to file "3.7028055999999996_GO_manual_4x64graphite.val_bands" ... done
 
================ Projected Density of States (pDOS) calculation ================
 
Constructing AM resolved functions  ...... done
Writing NGWF plot files in formats: CUBE DX ...  done
 
Performing overlap integrals ...  done
 
Computing pDOS weights ...  done
 
All bands spilling parameter =   3.10 %
Occupancy-weighted spilling parameter =   0.92 %
 
 => Outputting data for OptaDOS <=
 
Writing pDOS weights to file "3.7028055999999996_GO_manual_4x64graphite.val_pdos_bin" ... done
 
Writing band gradients to file "3.7028055999999996_GO_manual_4x64graphite.val_dome_bin" ... done
 
Writing Castep output cell file to "3.7028055999999996_GO_manual_4x64graphite-out.cell" ... done
 
 => Computing Gaussian smeared pDOS <= 
Writing "3.7028055999999996_GO_manual_4x64graphite_PDOS.txt" ...  done
 
 => Computing Occupancy-weighted Gaussian smeared pDOS <= 
Writing "3.7028055999999996_GO_manual_4x64graphite_occ_PDOS.txt" ...  done
  => Band centres: 
 S band centre of group 1:  -13.784932 eV
 P band centre of group 1:   -6.663633 eV
  Band centres done. <=
  => Integrated number of electrons in each AM band: 
 S num electrons of group 1:  574.060438
 P num electrons of group 1: 1962.378828
  Integrated number of electrons done. <=
================================================================================

------------------------------ TIMING INFORMATION ------------------------------
AVERAGE TIME:    3031.392s on     40 node(s)                                    
TOTAL TIME:      3031.392s on     40 node(s)                                    
================= AVERAGE TIMINGS FROM ALL NODES (CUMULATIVE) ==================
|| TAG                                    #calls    cpu time   %total  Gflops ||
|| work_imbalance                       :     1        0.00s   0.000%  ------ ||
|| paw_tcore_hartree_on_grid            :     1        0.01s   0.000%  ------ ||
|| paw_tcore_density                    :     1        0.01s   0.000%  ------ ||
|| paw_sphere_density_on_grid           :     1        0.02s   0.000%  ------ ||
|| sparse_set_to_garbage                :   135        0.02s   0.001%  ------ ||
|| paw_dij_hartree                      :   273        0.03s   0.001%  ------ ||
|| basis_extract_function_from_box      :  1536        0.06s   0.002%  ------ ||
|| pseudo_make_structure_factor         :     1        0.07s   0.002%  ------ ||
|| paw_species_calc_proj_prec_mat       :     1        0.12s   0.004%  ------ ||
|| paw_dataset_init                     :     1        0.15s   0.005%  ------ ||
|| density_init_guess_real              :     1        0.18s   0.006%  ------ ||
|| ngwfs_initialise_from_radial         :     2        0.67s   0.022%  ------ ||
|| restart_kernel_write                 :    13        0.67s   0.022%  ------ ||
|| sparse_init                          :     1        0.93s   0.031%  ------ ||
|| dense_normal_eigensolve              :     1        1.06s   0.035%  ------ ||
|| hartree_on_grid                      :   205        1.22s   0.040%  ------ ||
|| projectors_init_fftbox_recip         :   121        2.33s   0.077%  ------ ||
|| ewald_calculate_energy               :     1        3.14s   0.104%  ------ ||
|| fourier_apply_box_pair               :  2272        3.76s   0.124% 560.769 ||
|| basis_copy_function_to_box           : 19584        4.20s   0.139%  ------ ||
|| augmentation_screen_dij              :   210        4.55s   0.150%  ------ ||
|| sparse_embed_hotelling_invert_embed  :    23        6.59s   0.217%  ------ ||
|| sw_init                              :     1        6.73s   0.222%  ------ ||
|| ngwf_gradient_coeffs                 :    12        8.45s   0.279%  ------ ||
|| sparse_trace                         :  2468       11.30s   0.373%  ------ ||
|| cell_grid_extract_box_real           :  8300       13.60s   0.449%  ------ ||
|| fourier_apply_cell_backward          :  6326       14.53s   0.479%  56.795 ||
|| fourier_apply_cell_forward           :  5917       15.37s   0.507%  50.244 ||
|| cell_grid_deposit_box_real           : 26416       19.19s   0.633%  ------ ||
|| paw_dij_xc                           :   273       19.62s   0.647%  ------ ||
|| aug_nonlocal_mat                     :   261       28.10s   0.927%  ------ ||
|| augmentation_density_on_grid         :   205       36.54s   1.205%  ------ ||
|| density_fftbox_deposit_to_cell       : 13120       39.95s   1.318%  ------ ||
|| hamiltonian_energy_components        :     3       46.89s   1.547%  ------ ||
|| eigenstates_pdos                     :     1       48.43s   1.598%  ------ ||
|| function_ops_brappd_ketppd           :    48       48.60s   1.603%  ------ ||
|| eigenstates_calculate                :     1       52.41s   1.729%  ------ ||
|| projectors_func_ovlp_box             :    24       54.24s   1.789%  ------ ||
|| xc_energy_potential                  :   204       64.58s   2.130%  ------ ||
|| nlxc_vdw_energy                      :   408       67.75s   2.235%  ------ ||
|| integrals_kinetic                    :    23       75.65s   2.496%  ------ ||
|| properties_calculate                 :     1       93.73s   3.092%  ------ ||
|| dense_eigensolve                     :   178       97.26s   3.208%  ------ ||
|| sparse_product                       :  2515      101.11s   3.335%  ------ ||
|| potential_apply_to_ngwf_batch        :   260      103.99s   3.431%  ------ ||
|| restart_ngwfs_tightbox_output        :    11      114.04s   3.762%  ------ ||
|| basis_dot_function_with_box          : 6.090M     167.71s   5.532%  ------ ||
|| fourier_apply_box                    : 61776      191.69s   6.323% 978.244 ||
|| edft_diag_ngwf_ham                   :   177      206.44s   6.810%  ------ ||
|| integrals_locpot_mat_els_batch       :   260      216.99s   7.158%  ------ ||
|| projectors_gradient_batch            :    48      219.17s   7.230%  ------ ||
|| density_fftbox_interpolate_multiply  : 13120      254.07s   8.381%  ------ ||
|| projectors_grad_precond_batch        :    48      300.79s   9.922%  ------ ||
|| integrals_locpot_dbl_grid            :    65      322.16s  10.627%  ------ ||
|| density_batch_interp_deposit         :   820      328.67s  10.842%  ------ ||
|| edft_apply_smearing_operator         :   177      393.96s  12.996%  ------ ||
|| basis_add_function_to_box            : 16.97M     450.42s  14.858%  ------ ||
|| ngwf_gradient_build_batch            :    48      556.56s  18.360%  ------ ||
|| density_batch_row_sums               :   820      618.94s  20.418%  ------ ||
|| ngwf_gradient_batch                  :    48      732.98s  24.180%  ------ ||
|| ngwf_gradient_lnv                    :    12      757.32s  24.983%  ------ ||
|| density_on_dbl_grid                  :   205      958.33s  31.614%  ------ ||
|| hamiltonian_lhxc_calculate           :   200     1041.40s  34.354%  ------ ||
|| edft_calculate                       :    12     1736.40s  57.281%  ------ ||
|| ngwf_cg_optimise                     :     1     2917.41s  96.240%  ------ ||
|| total_time                           :     1     3031.39s 100.000%  ------ ||
================================================================================
Overhead of generating timer report: 
- 0 ms averaging over threads,
- 5 ms ensuring consistency across MPI ranks,
- 0 ms printing in order.

Job completed: 29-02-2020 13:30 (-0000)

