 +---------------------------------------------------------------+
 |                                                               |
 |        ####### #     # ####### ####### ####### ######         |
 |        #     # ##    # #          #    #       #     #        |
 |        #     # # #   # #          #    #       #     #        |
 |        #     # #  #  # #####      #    #####   ######         |
 |        #     # #   # # #          #    #       #              |
 |        #     # #    ## #          #    #       #              |
 |        ####### #     # #######    #    ####### #              |
 |                                                               |
 |        Linear-Scaling Ab Initio Total Energy Program          |
 |                                                               |
 |          Release for academic collaborators of ODG            |
 |                                             Version 5.3.2.12  |
 |                                                               |
 +---------------------------------------------------------------+
 |                                                               |
 |  Authors:                                                     |
 |  Jacek Dziedzic, Peter D. Haynes, Nicholas D. M. Hine,        |
 |  Arash. A. Mostofi, Mike C. Payne and Chris-Kriton Skylaris   |
 |                                                               |
 |  Contributors:                                                |
 |  J. Aarons, L. Andrinopoulos, P. W. Avraam, R. A. Bell,       |
 |  A. Bhandari, G. A. Bramley, R. J. Charlton, S. J. Clark,     |
 |  R. J. Clements, G. C. Constantinescu, F. Corsetti,           |
 |  N. Corsini, O. Dieguez, S. M. M. Dubois, K. K. B. Duff,      |
 |  J. M. Escartin, A. Greco, H. Helal, Q. O. Hill, L. P. Lee,   |
 |  J.-H. Li, E. B. Linscott, G. Moynihan, D. D. O`Regan,        |
 |  O. K. Okan, M. J. S. Phipps, C. J. Pickard,                  |
 |  J. C. A. Prentice, M. I. J. Probert, L. E. Ratcliff,         |
 |  M. Robinson, A. Ruiz Serrano, J. S. Spencer, E. W. Tait,     |
 |  G. Teobaldi, D. Turban, V. Vitale, K. A. Wilkinson,          |
 |  C. Weber, J. C. Womack, N. Yeung and T. J. Zuehlsdorff       |
 |                                                               |
 |                                   Copyright (c) 2004-2020     |
 |                                                               |
 |  Please cite:                                                 |
 |  "Introducing ONETEP: Linear-scaling density functional       |
 |   simulations on parallel computers".                         |
 |   C.-K. Skylaris, P. D. Haynes, A. A. Mostofi, M. C. Payne.   |
 |   J. Chem. Phys. 122 084119 (2005).                           |
 |                                                               |
 |          in all publications arising from your use of ONETEP. |
 |                                                               |
 +---------------------------------------------------------------+
 |                                                               |
 |   ONETEP is based on developments described in the following  |
 |   publications:                                               |
 |                                                               |
 |  "Nonorthogonal generalized Wannier function pseudopotential  |
 |   plane-wave method".                                         |
 |   C.-K. Skylaris, A. A. Mostofi, P. D. Haynes, O. Dieguez,    |
 |   M. C. Payne.                                                |
 |   Phys. Rev. B 66 035119 (2002).                              |
 |                                                               |
 |  "Preconditioned iterative minimization for linear-scaling    |
 |   electronic structure calculations".                         |
 |   A. A. Mostofi, P. D. Haynes, C.-K. Skylaris, M. C. Payne.   |
 |   J. Chem. Phys. 119(17), pp.8842-8848 (2003).                |
 |                                                               |
 |  "Total-energy calculations on a real space grid with         |
 |   localized functions and a plane-wave basis".                |
 |   A. A. Mostofi, C.-K. Skylaris, P. D. Haynes, M. C. Payne.   |
 |   Comput. Phys. Commun. 147, pp.788-802 (2002).               |
 |                                                               |
 |  "Accurate kinetic energy evaluation in electronic structure  |
 |   calculations with localized functions on real space grids"  |
 |   C.-K. Skylaris, A. A. Mostofi, P. D. Haynes, C. J. Pickard, |
 |   M. C. Payne.                                                |
 |   Comput. Phys. Commun. 140, pp.315-322 (2001).               |
 |                                                               |
 |  "Accurate ionic forces and geometry optimization in linear-  |
 |   scaling density-functional theory with local orbitals"      |
 |   N. D. M. Hine, M. Robinson, P. D. Haynes, C.-K. Skylaris,   |
 |   M. C. Payne, and A. A. Mostofi.                             |
 |   Phys. Rev. B 83 195102 (2011).                              |
 |                                                               |
 +---------------------------------------------------------------+

Job started: 29-02-2020 12:24 (-0000)
 
Reading parameters from file "3.8101304_GO_manual_4x64graphite.dat" ...

WARNING: "cutoff_energy" not specified, but "psinc_spacing" specified.
         Using the latter to set the KE cutoff energy to  732.32021eV,
         thus *overriding* the default.

... done

If your calculation crashes here, before "Checking processes and threads..."
is displayed, then your stack size is insufficient.
If so, use "ulimit -s unlimited" at runtime.
You can disable this check with "check_stack_size F".

Checking processes and threads...
   Determining the default number of threads...
      No default threads set at compilation time: defaulting to 1.
      OpenMP library call suggests 4 threads.
      Hybrid MPI-OpenMP compilation detected.
      Number of MPI processes > 1.
      OMP_NUM_THREADS environment variable present and
      its value matches the one obtained from the OpenMP library call.
      Using this value as default.
      Default threads: 4
      Default applies to threads_max and threads_num_fftboxes.
      Settings in the input file override this default.
   ... done

   Running with 40 MPI processes.
   There are 10 MPI processes running on the same node as the root process.
   Each MPI process is using: 
               1 threads for simulation cell FFTs.
               1 threads for parallel FFT box operations.
               4 threads for loops over batched FFT box operations.
               4 threads in other parallel regions.
... done

Basic input checks...
Resetting ngwf_cg_rotate to TRUE for EDFT calculations
... done

Reading geometry and species blocks from file "3.8101304_GO_manual_4x64graphite.dat" ...
    
  PSINC grid spacing along a1 set to   0.511215680000a0 from input file.
  PSINC grid spacing along a2 set to   0.531284090000a0 from input file.
  PSINC grid spacing along a3 set to   0.507050540000a0 from input file.
  Number of PPD points along a3 set to 1.  This is 
  the default value, it may have been provided also in the input file.
... done
 Writing xyz coordinates to file "3.8101304_GO_manual_4x64graphite.xyz" ... done


--------------------------------------------------------------------------------
---------------------------------- INPUT FILE ----------------------------------
--------------------------------------------------------------------------------

task : singlepoint                                                              
do_properties : true                                                            
dx_format T                                                                     
edft T                                                                          
output_detail VERBOSE                                                           
write_xyz T                                                                     
xc_functional VV10                                                              
PSINC_SPACING 0.51121568 0.53128409 0.50705054                                  
paw T                                                                           
pdos_max_l = 2                                                                  
dos_smear  0.1 eV                                                               
popn_calculate T                                                                
PDOS_PSEUDOATOMIC T                                                             
PDOS_REDUCE_SWS F                                                               
PDOS_CONSTRUCT_BASIS F                                                          
PDOS_LOWDIN T                                                                   
PDOS_ORTH_ATOM_BLOCKS F                                                         
PDOS_LCAO_OPTIMIZE F                                                            
pdos_optados_output T                                                           
homo_plot 0                                                                     
lumo_plot 0                                                                     
homo_dens_plot -1                                                               
lumo_dens_plot -1                                                               
%BLOCK SPECIES                                                                  
C C 6 4 9.0                                                                     
%ENDBLOCK SPECIES                                                               
%BLOCK SPECIES_POT                                                              
C "~/pp/paw/c_pbe_abinit.paw"                                                   
%ENDBLOCK SPECIES_POT                                                           
%BLOCK SPECIES_ATOMIC_SET                                                       
C "SOLVE conf=2s2 2p2"                                                          
%ENDBLOCK SPECIES_ATOMIC_SET                                                    
%BLOCK LATTICE_CART                                                             
32.21  0.00  0.00                                                               
0.00 18.59  0.00                                                                
0.00  0.00 72.00                                                                
%ENDBLOCK LATTICE_CART                                                          
%BLOCK POSITIONS_ABS                                                            
C  0.00  0.00  3.60                                                             
C  0.00  0.00 18.00                                                             
C  0.00  0.00 32.40                                                             
C  0.00  0.00 46.80                                                             
C  0.00  0.00 61.20                                                             
C  0.00  4.65  3.60                                                             
C  0.00  4.65 18.00                                                             
C  0.00  4.65 32.40                                                             
C  0.00  4.65 46.80                                                             
C  0.00  4.65 61.20                                                             
C  4.03  2.32  3.60                                                             
C  4.03  2.32 18.00                                                             
C  4.03  2.32 32.40                                                             
C  4.03  2.32 46.80                                                             
C  4.03  2.32 61.20                                                             
C  8.05  0.00  3.60                                                             
C  8.05  0.00 18.00                                                             
C  8.05  0.00 32.40                                                             
C  8.05  0.00 46.80                                                             
C  8.05  0.00 61.20                                                             
C  0.00  9.30  3.60                                                             
C  0.00  9.30 18.00                                                             
C  0.00  9.30 32.40                                                             
C  0.00  9.30 46.80                                                             
C  0.00  9.30 61.20                                                             
C  4.03  6.97  3.60                                                             
C  4.03  6.97 18.00                                                             
C  4.03  6.97 32.40                                                             
C  4.03  6.97 46.80                                                             
C  4.03  6.97 61.20                                                             
C  8.05  4.65  3.60                                                             
C  8.05  4.65 18.00                                                             
C  8.05  4.65 32.40                                                             
C  8.05  4.65 46.80                                                             
C  8.05  4.65 61.20                                                             
C 12.08  2.32  3.60                                                             
C 12.08  2.32 18.00                                                             
C 12.08  2.32 32.40                                                             
C 12.08  2.32 46.80                                                             
C 12.08  2.32 61.20                                                             
C 16.10  0.00  3.60                                                             
C 16.10  0.00 18.00                                                             
C 16.10  0.00 32.40                                                             
C 16.10  0.00 46.80                                                             
C 16.10  0.00 61.20                                                             
C  0.00 13.95  3.60                                                             
C  0.00 13.95 18.00                                                             
C  0.00 13.95 32.40                                                             
C  0.00 13.95 46.80                                                             
C  0.00 13.95 61.20                                                             
C  4.03 11.62  3.60                                                             
C  4.03 11.62 18.00                                                             
C  4.03 11.62 32.40                                                             
C  4.03 11.62 46.80                                                             
C  4.03 11.62 61.20                                                             
C  8.05  9.30  3.60                                                             
C  8.05  9.30 18.00                                                             
C  8.05  9.30 32.40                                                             
C  8.05  9.30 46.80                                                             
C  8.05  9.30 61.20                                                             
C 12.08  6.97  3.60                                                             
C 12.08  6.97 18.00                                                             
C 12.08  6.97 32.40                                                             
C 12.08  6.97 46.80                                                             
C 12.08  6.97 61.20                                                             
C 16.10  4.65  3.60                                                             
C 16.10  4.65 18.00                                                             
C 16.10  4.65 32.40                                                             
C 16.10  4.65 46.80                                                             
C 16.10  4.65 61.20                                                             
C 20.13  2.32  3.60                                                             
C 20.13  2.32 18.00                                                             
C 20.13  2.32 32.40                                                             
C 20.13  2.32 46.80                                                             
C 20.13  2.32 61.20                                                             
C 24.16  0.00  3.60                                                             
C 24.16  0.00 18.00                                                             
C 24.16  0.00 32.40                                                             
C 24.16  0.00 46.80                                                             
C 24.16  0.00 61.20                                                             
C  4.03 16.27  3.60                                                             
C  4.03 16.27 18.00                                                             
C  4.03 16.27 32.40                                                             
C  4.03 16.27 46.80                                                             
C  4.03 16.27 61.20                                                             
C  8.05 13.95  3.60                                                             
C  8.05 13.95 18.00                                                             
C  8.05 13.95 32.40                                                             
C  8.05 13.95 46.80                                                             
C  8.05 13.95 61.20                                                             
C 12.08 11.62  3.60                                                             
C 12.08 11.62 18.00                                                             
C 12.08 11.62 32.40                                                             
C 12.08 11.62 46.80                                                             
C 12.08 11.62 61.20                                                             
C 16.10  9.30  3.60                                                             
C 16.10  9.30 18.00                                                             
C 16.10  9.30 32.40                                                             
C 16.10  9.30 46.80                                                             
C 16.10  9.30 61.20                                                             
C 20.13  6.97  3.60                                                             
C 20.13  6.97 18.00                                                             
C 20.13  6.97 32.40                                                             
C 20.13  6.97 46.80                                                             
C 20.13  6.97 61.20                                                             
C 24.16  4.65  3.60                                                             
C 24.16  4.65 18.00                                                             
C 24.16  4.65 32.40                                                             
C 24.16  4.65 46.80                                                             
C 24.16  4.65 61.20                                                             
C 28.18  2.32  3.60                                                             
C 28.18  2.32 18.00                                                             
C 28.18  2.32 32.40                                                             
C 28.18  2.32 46.80                                                             
C 28.18  2.32 61.20                                                             
C 12.08 16.27  3.60                                                             
C 12.08 16.27 18.00                                                             
C 12.08 16.27 32.40                                                             
C 12.08 16.27 46.80                                                             
C 12.08 16.27 61.20                                                             
C 16.10 13.95  3.60                                                             
C 16.10 13.95 18.00                                                             
C 16.10 13.95 32.40                                                             
C 16.10 13.95 46.80                                                             
C 16.10 13.95 61.20                                                             
C 20.13 11.62  3.60                                                             
C 20.13 11.62 18.00                                                             
C 20.13 11.62 32.40                                                             
C 20.13 11.62 46.80                                                             
C 20.13 11.62 61.20                                                             
C 24.16  9.30  3.60                                                             
C 24.16  9.30 18.00                                                             
C 24.16  9.30 32.40                                                             
C 24.16  9.30 46.80                                                             
C 24.16  9.30 61.20                                                             
C 28.18  6.97  3.60                                                             
C 28.18  6.97 18.00                                                             
C 28.18  6.97 32.40                                                             
C 28.18  6.97 46.80                                                             
C 28.18  6.97 61.20                                                             
C 20.13 16.27  3.60                                                             
C 20.13 16.27 18.00                                                             
C 20.13 16.27 32.40                                                             
C 20.13 16.27 46.80                                                             
C 20.13 16.27 61.20                                                             
C 24.16 13.95  3.60                                                             
C 24.16 13.95 18.00                                                             
C 24.16 13.95 32.40                                                             
C 24.16 13.95 46.80                                                             
C 24.16 13.95 61.20                                                             
C 28.18 11.62  3.60                                                             
C 28.18 11.62 18.00                                                             
C 28.18 11.62 32.40                                                             
C 28.18 11.62 46.80                                                             
C 28.18 11.62 61.20                                                             
C 28.18 16.27  3.60                                                             
C 28.18 16.27 18.00                                                             
C 28.18 16.27 32.40                                                             
C 28.18 16.27 46.80                                                             
C 28.18 16.27 61.20                                                             
C  0.00  0.00 10.80                                                             
C  0.00  0.00 25.20                                                             
C  0.00  0.00 39.60                                                             
C  0.00  0.00 54.00                                                             
C  0.00  0.00 68.40                                                             
C  0.00  4.65 10.80                                                             
C  0.00  4.65 25.20                                                             
C  0.00  4.65 39.60                                                             
C  0.00  4.65 54.00                                                             
C  0.00  4.65 68.40                                                             
C  4.03  2.32 10.80                                                             
C  4.03  2.32 25.20                                                             
C  4.03  2.32 39.60                                                             
C  4.03  2.32 54.00                                                             
C  4.03  2.32 68.40                                                             
C  8.05  0.00 10.80                                                             
C  8.05  0.00 25.20                                                             
C  8.05  0.00 39.60                                                             
C  8.05  0.00 54.00                                                             
C  8.05  0.00 68.40                                                             
C  0.00  9.30 10.80                                                             
C  0.00  9.30 25.20                                                             
C  0.00  9.30 39.60                                                             
C  0.00  9.30 54.00                                                             
C  0.00  9.30 68.40                                                             
C  4.03  6.97 10.80                                                             
C  4.03  6.97 25.20                                                             
C  4.03  6.97 39.60                                                             
C  4.03  6.97 54.00                                                             
C  4.03  6.97 68.40                                                             
C  8.05  4.65 10.80                                                             
C  8.05  4.65 25.20                                                             
C  8.05  4.65 39.60                                                             
C  8.05  4.65 54.00                                                             
C  8.05  4.65 68.40                                                             
C 12.08  2.32 10.80                                                             
C 12.08  2.32 25.20                                                             
C 12.08  2.32 39.60                                                             
C 12.08  2.32 54.00                                                             
C 12.08  2.32 68.40                                                             
C 16.10  0.00 10.80                                                             
C 16.10  0.00 25.20                                                             
C 16.10  0.00 39.60                                                             
C 16.10  0.00 54.00                                                             
C 16.10  0.00 68.40                                                             
C  0.00 13.95 10.80                                                             
C  0.00 13.95 25.20                                                             
C  0.00 13.95 39.60                                                             
C  0.00 13.95 54.00                                                             
C  0.00 13.95 68.40                                                             
C  4.03 11.62 10.80                                                             
C  4.03 11.62 25.20                                                             
C  4.03 11.62 39.60                                                             
C  4.03 11.62 54.00                                                             
C  4.03 11.62 68.40                                                             
C  8.05  9.30 10.80                                                             
C  8.05  9.30 25.20                                                             
C  8.05  9.30 39.60                                                             
C  8.05  9.30 54.00                                                             
C  8.05  9.30 68.40                                                             
C 12.08  6.97 10.80                                                             
C 12.08  6.97 25.20                                                             
C 12.08  6.97 39.60                                                             
C 12.08  6.97 54.00                                                             
C 12.08  6.97 68.40                                                             
C 16.10  4.65 10.80                                                             
C 16.10  4.65 25.20                                                             
C 16.10  4.65 39.60                                                             
C 16.10  4.65 54.00                                                             
C 16.10  4.65 68.40                                                             
C 20.13  2.32 10.80                                                             
C 20.13  2.32 25.20                                                             
C 20.13  2.32 39.60                                                             
C 20.13  2.32 54.00                                                             
C 20.13  2.32 68.40                                                             
C 24.16  0.00 10.80                                                             
C 24.16  0.00 25.20                                                             
C 24.16  0.00 39.60                                                             
C 24.16  0.00 54.00                                                             
C 24.16  0.00 68.40                                                             
C  4.03 16.27 10.80                                                             
C  4.03 16.27 25.20                                                             
C  4.03 16.27 39.60                                                             
C  4.03 16.27 54.00                                                             
C  4.03 16.27 68.40                                                             
C  8.05 13.95 10.80                                                             
C  8.05 13.95 25.20                                                             
C  8.05 13.95 39.60                                                             
C  8.05 13.95 54.00                                                             
C  8.05 13.95 68.40                                                             
C 12.08 11.62 10.80                                                             
C 12.08 11.62 25.20                                                             
C 12.08 11.62 39.60                                                             
C 12.08 11.62 54.00                                                             
C 12.08 11.62 68.40                                                             
C 16.10  9.30 10.80                                                             
C 16.10  9.30 25.20                                                             
C 16.10  9.30 39.60                                                             
C 16.10  9.30 54.00                                                             
C 16.10  9.30 68.40                                                             
C 20.13  6.97 10.80                                                             
C 20.13  6.97 25.20                                                             
C 20.13  6.97 39.60                                                             
C 20.13  6.97 54.00                                                             
C 20.13  6.97 68.40                                                             
C 24.16  4.65 10.80                                                             
C 24.16  4.65 25.20                                                             
C 24.16  4.65 39.60                                                             
C 24.16  4.65 54.00                                                             
C 24.16  4.65 68.40                                                             
C 28.18  2.32 10.80                                                             
C 28.18  2.32 25.20                                                             
C 28.18  2.32 39.60                                                             
C 28.18  2.32 54.00                                                             
C 28.18  2.32 68.40                                                             
C 12.08 16.27 10.80                                                             
C 12.08 16.27 25.20                                                             
C 12.08 16.27 39.60                                                             
C 12.08 16.27 54.00                                                             
C 12.08 16.27 68.40                                                             
C 16.10 13.95 10.80                                                             
C 16.10 13.95 25.20                                                             
C 16.10 13.95 39.60                                                             
C 16.10 13.95 54.00                                                             
C 16.10 13.95 68.40                                                             
C 20.13 11.62 10.80                                                             
C 20.13 11.62 25.20                                                             
C 20.13 11.62 39.60                                                             
C 20.13 11.62 54.00                                                             
C 20.13 11.62 68.40                                                             
C 24.16  9.30 10.80                                                             
C 24.16  9.30 25.20                                                             
C 24.16  9.30 39.60                                                             
C 24.16  9.30 54.00                                                             
C 24.16  9.30 68.40                                                             
C 28.18  6.97 10.80                                                             
C 28.18  6.97 25.20                                                             
C 28.18  6.97 39.60                                                             
C 28.18  6.97 54.00                                                             
C 28.18  6.97 68.40                                                             
C 20.13 16.27 10.80                                                             
C 20.13 16.27 25.20                                                             
C 20.13 16.27 39.60                                                             
C 20.13 16.27 54.00                                                             
C 20.13 16.27 68.40                                                             
C 24.16 13.95 10.80                                                             
C 24.16 13.95 25.20                                                             
C 24.16 13.95 39.60                                                             
C 24.16 13.95 54.00                                                             
C 24.16 13.95 68.40                                                             
C 28.18 11.62 10.80                                                             
C 28.18 11.62 25.20                                                             
C 28.18 11.62 39.60                                                             
C 28.18 11.62 54.00                                                             
C 28.18 11.62 68.40                                                             
C 28.18 16.27 10.80                                                             
C 28.18 16.27 25.20                                                             
C 28.18 16.27 39.60                                                             
C 28.18 16.27 54.00                                                             
C 28.18 16.27 68.40                                                             
C  1.34  2.32  3.60                                                             
C  1.34  2.32 18.00                                                             
C  1.34  2.32 32.40                                                             
C  1.34  2.32 46.80                                                             
C  1.34  2.32 61.20                                                             
C  5.37  0.00  3.60                                                             
C  5.37  0.00 18.00                                                             
C  5.37  0.00 32.40                                                             
C  5.37  0.00 46.80                                                             
C  5.37  0.00 61.20                                                             
C  1.34  6.97  3.60                                                             
C  1.34  6.97 18.00                                                             
C  1.34  6.97 32.40                                                             
C  1.34  6.97 46.80                                                             
C  1.34  6.97 61.20                                                             
C  5.37  4.65  3.60                                                             
C  5.37  4.65 18.00                                                             
C  5.37  4.65 32.40                                                             
C  5.37  4.65 46.80                                                             
C  5.37  4.65 61.20                                                             
C  9.39  2.32  3.60                                                             
C  9.39  2.32 18.00                                                             
C  9.39  2.32 32.40                                                             
C  9.39  2.32 46.80                                                             
C  9.39  2.32 61.20                                                             
C 13.42  0.00  3.60                                                             
C 13.42  0.00 18.00                                                             
C 13.42  0.00 32.40                                                             
C 13.42  0.00 46.80                                                             
C 13.42  0.00 61.20                                                             
C  1.34 11.62  3.60                                                             
C  1.34 11.62 18.00                                                             
C  1.34 11.62 32.40                                                             
C  1.34 11.62 46.80                                                             
C  1.34 11.62 61.20                                                             
C  5.37  9.30  3.60                                                             
C  5.37  9.30 18.00                                                             
C  5.37  9.30 32.40                                                             
C  5.37  9.30 46.80                                                             
C  5.37  9.30 61.20                                                             
C  9.39  6.97  3.60                                                             
C  9.39  6.97 18.00                                                             
C  9.39  6.97 32.40                                                             
C  9.39  6.97 46.80                                                             
C  9.39  6.97 61.20                                                             
C 13.42  4.65  3.60                                                             
C 13.42  4.65 18.00                                                             
C 13.42  4.65 32.40                                                             
C 13.42  4.65 46.80                                                             
C 13.42  4.65 61.20                                                             
C 17.45  2.32  3.60                                                             
C 17.45  2.32 18.00                                                             
C 17.45  2.32 32.40                                                             
C 17.45  2.32 46.80                                                             
C 17.45  2.32 61.20                                                             
C 21.47  0.00  3.60                                                             
C 21.47  0.00 18.00                                                             
C 21.47  0.00 32.40                                                             
C 21.47  0.00 46.80                                                             
C 21.47  0.00 61.20                                                             
C  1.34 16.27  3.60                                                             
C  1.34 16.27 18.00                                                             
C  1.34 16.27 32.40                                                             
C  1.34 16.27 46.80                                                             
C  1.34 16.27 61.20                                                             
C  5.37 13.95  3.60                                                             
C  5.37 13.95 18.00                                                             
C  5.37 13.95 32.40                                                             
C  5.37 13.95 46.80                                                             
C  5.37 13.95 61.20                                                             
C  9.39 11.62  3.60                                                             
C  9.39 11.62 18.00                                                             
C  9.39 11.62 32.40                                                             
C  9.39 11.62 46.80                                                             
C  9.39 11.62 61.20                                                             
C 13.42  9.30  3.60                                                             
C 13.42  9.30 18.00                                                             
C 13.42  9.30 32.40                                                             
C 13.42  9.30 46.80                                                             
C 13.42  9.30 61.20                                                             
C 17.45  6.97  3.60                                                             
C 17.45  6.97 18.00                                                             
C 17.45  6.97 32.40                                                             
C 17.45  6.97 46.80                                                             
C 17.45  6.97 61.20                                                             
C 21.47  4.65  3.60                                                             
C 21.47  4.65 18.00                                                             
C 21.47  4.65 32.40                                                             
C 21.47  4.65 46.80                                                             
C 21.47  4.65 61.20                                                             
C 25.50  2.32  3.60                                                             
C 25.50  2.32 18.00                                                             
C 25.50  2.32 32.40                                                             
C 25.50  2.32 46.80                                                             
C 25.50  2.32 61.20                                                             
C 29.52  0.00  3.60                                                             
C 29.52  0.00 18.00                                                             
C 29.52  0.00 32.40                                                             
C 29.52  0.00 46.80                                                             
C 29.52  0.00 61.20                                                             
C  9.39 16.27  3.60                                                             
C  9.39 16.27 18.00                                                             
C  9.39 16.27 32.40                                                             
C  9.39 16.27 46.80                                                             
C  9.39 16.27 61.20                                                             
C 13.42 13.95  3.60                                                             
C 13.42 13.95 18.00                                                             
C 13.42 13.95 32.40                                                             
C 13.42 13.95 46.80                                                             
C 13.42 13.95 61.20                                                             
C 17.45 11.62  3.60                                                             
C 17.45 11.62 18.00                                                             
C 17.45 11.62 32.40                                                             
C 17.45 11.62 46.80                                                             
C 17.45 11.62 61.20                                                             
C 21.47  9.30  3.60                                                             
C 21.47  9.30 18.00                                                             
C 21.47  9.30 32.40                                                             
C 21.47  9.30 46.80                                                             
C 21.47  9.30 61.20                                                             
C 25.50  6.97  3.60                                                             
C 25.50  6.97 18.00                                                             
C 25.50  6.97 32.40                                                             
C 25.50  6.97 46.80                                                             
C 25.50  6.97 61.20                                                             
C 29.52  4.65  3.60                                                             
C 29.52  4.65 18.00                                                             
C 29.52  4.65 32.40                                                             
C 29.52  4.65 46.80                                                             
C 29.52  4.65 61.20                                                             
C 17.45 16.27  3.60                                                             
C 17.45 16.27 18.00                                                             
C 17.45 16.27 32.40                                                             
C 17.45 16.27 46.80                                                             
C 17.45 16.27 61.20                                                             
C 21.47 13.95  3.60                                                             
C 21.47 13.95 18.00                                                             
C 21.47 13.95 32.40                                                             
C 21.47 13.95 46.80                                                             
C 21.47 13.95 61.20                                                             
C 25.50 11.62  3.60                                                             
C 25.50 11.62 18.00                                                             
C 25.50 11.62 32.40                                                             
C 25.50 11.62 46.80                                                             
C 25.50 11.62 61.20                                                             
C 29.52  9.30  3.60                                                             
C 29.52  9.30 18.00                                                             
C 29.52  9.30 32.40                                                             
C 29.52  9.30 46.80                                                             
C 29.52  9.30 61.20                                                             
C 25.50 16.27  3.60                                                             
C 25.50 16.27 18.00                                                             
C 25.50 16.27 32.40                                                             
C 25.50 16.27 46.80                                                             
C 25.50 16.27 61.20                                                             
C 29.52 13.95  3.60                                                             
C 29.52 13.95 18.00                                                             
C 29.52 13.95 32.40                                                             
C 29.52 13.95 46.80                                                             
C 29.52 13.95 61.20                                                             
C  2.68  0.00 10.80                                                             
C  2.68  0.00 25.20                                                             
C  2.68  0.00 39.60                                                             
C  2.68  0.00 54.00                                                             
C  2.68  0.00 68.40                                                             
C  2.68  4.65 10.80                                                             
C  2.68  4.65 25.20                                                             
C  2.68  4.65 39.60                                                             
C  2.68  4.65 54.00                                                             
C  2.68  4.65 68.40                                                             
C  6.71  2.32 10.80                                                             
C  6.71  2.32 25.20                                                             
C  6.71  2.32 39.60                                                             
C  6.71  2.32 54.00                                                             
C  6.71  2.32 68.40                                                             
C 10.74  0.00 10.80                                                             
C 10.74  0.00 25.20                                                             
C 10.74  0.00 39.60                                                             
C 10.74  0.00 54.00                                                             
C 10.74  0.00 68.40                                                             
C  2.68  9.30 10.80                                                             
C  2.68  9.30 25.20                                                             
C  2.68  9.30 39.60                                                             
C  2.68  9.30 54.00                                                             
C  2.68  9.30 68.40                                                             
C  6.71  6.97 10.80                                                             
C  6.71  6.97 25.20                                                             
C  6.71  6.97 39.60                                                             
C  6.71  6.97 54.00                                                             
C  6.71  6.97 68.40                                                             
C 10.74  4.65 10.80                                                             
C 10.74  4.65 25.20                                                             
C 10.74  4.65 39.60                                                             
C 10.74  4.65 54.00                                                             
C 10.74  4.65 68.40                                                             
C 14.76  2.32 10.80                                                             
C 14.76  2.32 25.20                                                             
C 14.76  2.32 39.60                                                             
C 14.76  2.32 54.00                                                             
C 14.76  2.32 68.40                                                             
C 18.79  0.00 10.80                                                             
C 18.79  0.00 25.20                                                             
C 18.79  0.00 39.60                                                             
C 18.79  0.00 54.00                                                             
C 18.79  0.00 68.40                                                             
C  2.68 13.95 10.80                                                             
C  2.68 13.95 25.20                                                             
C  2.68 13.95 39.60                                                             
C  2.68 13.95 54.00                                                             
C  2.68 13.95 68.40                                                             
C  6.71 11.62 10.80                                                             
C  6.71 11.62 25.20                                                             
C  6.71 11.62 39.60                                                             
C  6.71 11.62 54.00                                                             
C  6.71 11.62 68.40                                                             
C 10.74  9.30 10.80                                                             
C 10.74  9.30 25.20                                                             
C 10.74  9.30 39.60                                                             
C 10.74  9.30 54.00                                                             
C 10.74  9.30 68.40                                                             
C 14.76  6.97 10.80                                                             
C 14.76  6.97 25.20                                                             
C 14.76  6.97 39.60                                                             
C 14.76  6.97 54.00                                                             
C 14.76  6.97 68.40                                                             
C 18.79  4.65 10.80                                                             
C 18.79  4.65 25.20                                                             
C 18.79  4.65 39.60                                                             
C 18.79  4.65 54.00                                                             
C 18.79  4.65 68.40                                                             
C 22.81  2.32 10.80                                                             
C 22.81  2.32 25.20                                                             
C 22.81  2.32 39.60                                                             
C 22.81  2.32 54.00                                                             
C 22.81  2.32 68.40                                                             
C 26.84  0.00 10.80                                                             
C 26.84  0.00 25.20                                                             
C 26.84  0.00 39.60                                                             
C 26.84  0.00 54.00                                                             
C 26.84  0.00 68.40                                                             
C  6.71 16.27 10.80                                                             
C  6.71 16.27 25.20                                                             
C  6.71 16.27 39.60                                                             
C  6.71 16.27 54.00                                                             
C  6.71 16.27 68.40                                                             
C 10.74 13.95 10.80                                                             
C 10.74 13.95 25.20                                                             
C 10.74 13.95 39.60                                                             
C 10.74 13.95 54.00                                                             
C 10.74 13.95 68.40                                                             
C 14.76 11.62 10.80                                                             
C 14.76 11.62 25.20                                                             
C 14.76 11.62 39.60                                                             
C 14.76 11.62 54.00                                                             
C 14.76 11.62 68.40                                                             
C 18.79  9.30 10.80                                                             
C 18.79  9.30 25.20                                                             
C 18.79  9.30 39.60                                                             
C 18.79  9.30 54.00                                                             
C 18.79  9.30 68.40                                                             
C 22.81  6.97 10.80                                                             
C 22.81  6.97 25.20                                                             
C 22.81  6.97 39.60                                                             
C 22.81  6.97 54.00                                                             
C 22.81  6.97 68.40                                                             
C 26.84  4.65 10.80                                                             
C 26.84  4.65 25.20                                                             
C 26.84  4.65 39.60                                                             
C 26.84  4.65 54.00                                                             
C 26.84  4.65 68.40                                                             
C 30.86  2.32 10.80                                                             
C 30.86  2.32 25.20                                                             
C 30.86  2.32 39.60                                                             
C 30.86  2.32 54.00                                                             
C 30.86  2.32 68.40                                                             
C 14.76 16.27 10.80                                                             
C 14.76 16.27 25.20                                                             
C 14.76 16.27 39.60                                                             
C 14.76 16.27 54.00                                                             
C 14.76 16.27 68.40                                                             
C 18.79 13.95 10.80                                                             
C 18.79 13.95 25.20                                                             
C 18.79 13.95 39.60                                                             
C 18.79 13.95 54.00                                                             
C 18.79 13.95 68.40                                                             
C 22.81 11.62 10.80                                                             
C 22.81 11.62 25.20                                                             
C 22.81 11.62 39.60                                                             
C 22.81 11.62 54.00                                                             
C 22.81 11.62 68.40                                                             
C 26.84  9.30 10.80                                                             
C 26.84  9.30 25.20                                                             
C 26.84  9.30 39.60                                                             
C 26.84  9.30 54.00                                                             
C 26.84  9.30 68.40                                                             
C 30.86  6.97 10.80                                                             
C 30.86  6.97 25.20                                                             
C 30.86  6.97 39.60                                                             
C 30.86  6.97 54.00                                                             
C 30.86  6.97 68.40                                                             
C 22.81 16.27 10.80                                                             
C 22.81 16.27 25.20                                                             
C 22.81 16.27 39.60                                                             
C 22.81 16.27 54.00                                                             
C 22.81 16.27 68.40                                                             
C 26.84 13.95 10.80                                                             
C 26.84 13.95 25.20                                                             
C 26.84 13.95 39.60                                                             
C 26.84 13.95 54.00                                                             
C 26.84 13.95 68.40                                                             
C 30.86 11.62 10.80                                                             
C 30.86 11.62 25.20                                                             
C 30.86 11.62 39.60                                                             
C 30.86 11.62 54.00                                                             
C 30.86 11.62 68.40                                                             
C 30.86 16.27 10.80                                                             
C 30.86 16.27 25.20                                                             
C 30.86 16.27 39.60                                                             
C 30.86 16.27 54.00                                                             
C 30.86 16.27 68.40                                                             
%ENDBLOCK POSITIONS_ABS                                                         

--------------------------------------------------------------------------------
-------------------------------- END INPUT FILE --------------------------------
--------------------------------------------------------------------------------


 
<<<<<<<<<<<<<<<<<<<<<<<<<<<<<<<<< Full system >>>>>>>>>>>>>>>>>>>>>>>>>>>>>>>>>>
<<<<<<<<<<<<<<<<<<<<<<<<<<< PAW Dataset information >>>>>>>>>>>>>>>>>>>>>>>>>>>
File: ~/pp/paw/c_pbe_abinit.paw; rc = 1.25 bohr; shape type =  3; rshape = 1.25 bohr;
  Atomic number:  6;  ionic charge:  4.000000
    Partial Wave 1: l = 0
    Partial Wave 2: l = 0
    Partial Wave 3: l = 1
    Partial Wave 4: l = 1
  Core charge supplied for Nonlinear Core Corrections
<<<<<<<<<<<<<<<<<<<<<<<<<<<<<<<<<<<<<<< >>>>>>>>>>>>>>>>>>>>>>>>>>>>>>>>>>>>>>>

-------------------------- Atom counting information ---------------------------
Symbol    Natoms    Nngwfs    Nprojs
  C        640      2560      5120
.......   ......    ......    ......
Totals:    640      2560      5120
--------------------------------------------------------------------------------

=============================== PSINC grid sizes ===============================
                      Simulation cell:   63 x  35 x 142
                              FFT-box:   63 x  35 x 117
                                  PPD:    7 x   5 x   1
Grid space d1=  0.511269841270a0 (KE cutoff=  29.06054Eh = 790.77748eV)
Grid space d2=  0.531142857143a0 (KE cutoff=  26.92659Eh = 732.70972eV)
Grid space d3=  0.507042253521a0 (KE cutoff=  29.54716Eh = 804.01905eV)
================================================================================
  
WARNING in cell_grid_distribute:
Average of less than one 23-slab per node, so workload cannot be
equally balanced between nodes.

********************* Fourier parallelisation information **********************
       Coarse grid (whole simulation cell) dimensions:     63    35   142
          Real-space ('12') slabs/node (min max mean):      3     4     3
         Recip-space ('23') slabs/node (min max mean):      0     1     0
********************************************************************************

********************* Fourier parallelisation information **********************
       Double grid (whole simulation cell) dimensions:    126    70   284
          Real-space ('12') slabs/node (min max mean):      7     8     7
         Recip-space ('23') slabs/node (min max mean):      1     2     1
********************************************************************************

Atom SCF Calculation for C  : Z (AE atom) =   6 : Z (PS atom) =   4
Config String: 2s2 2p2
Orbitals (num,occ):  2     2.00 2.00
Orbitals   (num,l):  2        0    1
Real-space Grid (nr,dr,rmax): 1293    0.0069659443    9.0000000000
Spherical Bessel Basis (nsws,lmax,cutoff):   37    2  161.4736382572
Confining potential (l,width,scale):  0    3.0000000000  100.0000000000
Confining potential (l,width,scale):  1    3.0000000000  100.0000000000
  1         -5.4283124456   -1.2935102156    4.5135257941   -1.5923561795
  2         -5.4241534249   -1.3636937911    4.4427183619   -1.5694122055
  3         -5.4326289545   -1.3865748334    4.4195613881   -1.5634604620
  4         -5.4368073263   -1.3933479911    4.4127833993   -1.5619680687
  5         -5.4388652800   -1.3969668505    4.4091714945   -1.5612108736
  6         -5.4399077146   -1.3988848872    4.4072644158   -1.5608235486
  7         -5.4404434041   -1.3998980658    4.4062615348   -1.5606243010
  8         -5.4407208401   -1.4004325328    4.4057350952   -1.5605214507
  9         -5.4408651553   -1.4007143559    4.4054589454   -1.5604682523
 10         -5.4409404127   -1.4008629743    4.4053141024   -1.5604407028
 11         -5.4409797152   -1.4009413770    4.4052381126   -1.5604264250
 12         -5.4410002582   -1.4009827603    4.4051982277   -1.5604190215
 13         -5.4410110012   -1.4010046176    4.4051772812   -1.5604151811
 14         -5.4410166211   -1.4010161701    4.4051662735   -1.5604131883
 15         -5.4410195614   -1.4010222805    4.4051604845   -1.5604121539
 16         -5.4410211001   -1.4010255150    4.4051574379   -1.5604116169
 17         -5.4410219052   -1.4010272285    4.4051558332   -1.5604113379
 18         -5.4410223266   -1.4010281369    4.4051549874   -1.5604111930
 19         -5.4410225472   -1.4010286190    4.4051545411   -1.5604111177
 20         -5.4410226626   -1.4010288749    4.4051543055   -1.5604110786
 21         -5.4410227231   -1.4010290110    4.4051541810   -1.5604110582
Atom SCF converged after  21 iterations to a total energy of     -5.44102272

Determining parallel strategy ...
... using space-filling curve
... NGWF load balancing: max     64;  min     64;  average     64
... Projector load balancing: max    128;  min    128;  average    128
... done
Calculating Ewald energy ...
              Ewald: real-space energy =    9487.229121
        Ewald: reciprocal-space energy =       0.442767
         Ewald: (sum_charge)**2 Energy =   10843.989123
         Ewald: (sum_charge**2) Energy =     857.292614
                          Ewald Energy =   -2213.609850
Basis initialisation ...... NGWF spheres initialised
... Projector spheres initialised
... NGWF tight boxes initialised
... Projector tight boxes initialised
... Tight-boxes gathered
... NGWF basis size (local,global):     692340  27908448
... PAW projector initialisation
... done

============================= Charge Augmentation ==============================
                           Aug box size:   11 x  11 x  11
================================================================================

========================== Sparse matrix information ===========================
                        Overlap matrix filling:  40.94%
                        Density kernel filling: 100.00%
              NGWF-Proj overlap matrix filling:  12.19%
                    Aug Overlap matrix filling:  47.03%
                    Hamiltonian matrix filling:  47.03%
                  NGWF diagonal matrix filling:   0.16%
                             KS matrix filling: 100.00% 
                           KSKS matrix filling: 100.00% 
================================================================================

Sparse matrix initialisation ... done
NGWF initialisation ...... done
============ Calculation of NGWF S^-1 using Hotelling algorithm ================ 
         Iteration  |  Frobenius norm and Maximum abs value    (of I-S*S_n^-1)   
               1       0.48923929E+02     0.97422699E+00
               2       0.47606905E+02     0.95032297E+00
               3       0.45662337E+02     0.90728300E+00
               4       0.43182137E+02     0.83594039E+00
               5       0.40241225E+02     0.73106483E+00
               6       0.36874579E+02     0.67146047E+00
               7       0.33436526E+02     0.62539722E+00
               8       0.30148184E+02     0.58638837E+00
               9       0.26534664E+02     0.54104484E+00
              10       0.21901958E+02     0.46828181E+00
              11       0.15897189E+02     0.35418987E+00
              12       0.91390697E+01     0.20801228E+00
              13       0.34819954E+01     0.77058934E-01
              14       0.60439077E+00     0.12234268E-01
              15       0.21564215E-01     0.37909383E-03
              16       0.35369239E-04     0.46700065E-06
              17       0.14482113E-09     0.11600720E-11
              18       0.68797615E-13     0.35527137E-14
================================================================================
Calculating core density ...
================================= Core Density =================================
               Core den box size:   21 x  21 x  21
================================================================================
 ... done
Up spin density kernel initialisation ...... done

Writing density kernel to file "3.8101304_GO_manual_4x64graphite.dkn" ... done

>>> Optimising kernel for current NGWFs:

--------------------------- Ensemble-DFT optimisation --------------------------
Running ScaLAPACK on   40 processor(s).

--------------------------------------------------------------------------------
  Iter                              Commutator    Free_energy(A=E-TS)     DeltaA
#    0                          0.000029699953   -3649.50752263138429  -3.65E+03

Step                       =       0.381966011250
Energy                     =   -3649.507494910808
Entropy (-TS)              =      -0.000027720790
Free energy (A=E-TS)       =   -3649.507522631384
Est. 0K Energy 0.5*(E+A)   =   -3649.507508771097
Residual Non-orthogonality =       0.000000000000
Residual N_electrons       =       0.000000000215

Spin          Integrated_Ne            Fermi_level     Delta_Fermi_level
   1      2559.999999998608         0.154402592436              1.54E-01

                           Spin 1          
     Orb      H-eigenvalues     Occupancies
       1 |    -0.5668470619    1.0000000000 | 
                          ------
    1276 |     0.1192303707    0.9999849860 | 
    1277 |     0.1198460670    0.9999817639 | 
    1278 |     0.1198576453    0.9999816971 | 
    1279 |     0.1198655612    0.9999816513 | 
    1280 |     0.1204935590    0.9999776268 | 
                 - Gap at zero temperature -
    1281 |     0.1905464424    0.0000110472 | 
    1282 |     0.1905545039    0.0000110191 | 
    1283 |     0.1905612735    0.0000109956 | 
    1284 |     0.1906445450    0.0000107102 | 
    1285 |     0.1906644186    0.0000106432 | 
                          ------
    2560 |     0.9869093671    0.0000000000 | 

                       |  Abs_value |  Threshold | Converged
     Delta_Free_energy |   3.65E+03 |   1.00E-06 |        No
     Delta_Energy      |   3.65E+03 |   1.00E-04 |        No
     Delta_Entropy     |   2.77E-05 |   1.00E-04 |       Yes
     Commutator        |   2.97E-05 |   1.00E-05 |        No
     Delta_Fermi_level |   1.54E-01 |   1.00E-03 |        No

  Line search of the free energy minimum:
  Step_type        Step             Free_energy   Predicted_free_energy
.   Initial    0.000000    -3649.50752263138429
.    Trial1    0.381966    -3649.50852096863355
.    Trial2    0.618034    -3649.50865560814327
. Quadratic    0.586254    -3649.50865892313186    -3649.50865894736535

--------------------------------------------------------------------------------
  Iter                              Commutator    Free_energy(A=E-TS)     DeltaA
#    1                          0.000017392780   -3649.50865892313186  -1.14E-03

Step                       =       0.586253641314
Energy                     =   -3649.508630903126
Entropy (-TS)              =      -0.000028020248
Free energy (A=E-TS)       =   -3649.508658923132
Est. 0K Energy 0.5*(E+A)   =   -3649.508644913129
Residual Non-orthogonality =       0.000000000000
Residual N_electrons       =       0.000000000242

Spin          Integrated_Ne            Fermi_level     Delta_Fermi_level
   1      2559.999999998412         0.152288387669             -2.11E-03

                           Spin 1          
     Orb      H-eigenvalues     Occupancies
       1 |    -0.5705985901    1.0000000000 | 
                          ------
    1276 |     0.1172034240    0.9999845665 | 
    1277 |     0.1176652456    0.9999821435 | 
    1278 |     0.1176783679    0.9999820693 | 
    1279 |     0.1178238671    0.9999812263 | 
    1280 |     0.1182993318    0.9999781851 | 
                 - Gap at zero temperature -
    1281 |     0.1883349363    0.0000113919 | 
    1282 |     0.1883431866    0.0000113622 | 
    1283 |     0.1883487924    0.0000113421 | 
    1284 |     0.1884361006    0.0000110337 | 
    1285 |     0.1884537785    0.0000109723 | 
                          ------
    2560 |     0.9830775605    0.0000000000 | 

                       |  Abs_value |  Threshold | Converged
     Delta_Free_energy |   1.14E-03 |   1.00E-06 |        No
     Delta_Energy      |   1.14E-03 |   1.00E-04 |        No
     Delta_Entropy     |   2.99E-07 |   1.00E-04 |       Yes
     Commutator        |   1.74E-05 |   1.00E-05 |        No
     Delta_Fermi_level |   2.11E-03 |   1.00E-03 |        No

  Line search of the free energy minimum:
  Step_type        Step             Free_energy   Predicted_free_energy
.   Initial    0.000000    -3649.50865892313186
.    Trial1    0.586254    -3649.50845549583937
.    Trial2    0.223929    -3649.50894145113352
. Quadratic    0.254050    -3649.50894547446660    -3649.50894547928374

--------------------------------------------------------------------------------
  Iter                              Commutator    Free_energy(A=E-TS)     DeltaA
#    2                          0.000009109461   -3649.50894547446660  -2.87E-04

Step                       =       0.254049785999
Energy                     =   -3649.508917405932
Entropy (-TS)              =      -0.000028068423
Free energy (A=E-TS)       =   -3649.508945474467
Est. 0K Energy 0.5*(E+A)   =   -3649.508931440199
Residual Non-orthogonality =       0.000000000000
Residual N_electrons       =      -0.000000000111

Spin          Integrated_Ne            Fermi_level     Delta_Fermi_level
   1      2560.000000000734         0.151913019056             -3.75E-04

                           Spin 1          
     Orb      H-eigenvalues     Occupancies
       1 |    -0.5712721940    1.0000000000 | 
                          ------
    1276 |     0.1168005294    0.9999847001 | 
    1277 |     0.1173118721    0.9999820190 | 
    1278 |     0.1173252032    0.9999819432 | 
    1279 |     0.1174177968    0.9999814074 | 
    1280 |     0.1179430522    0.9999780532 | 
                 - Gap at zero temperature -
    1281 |     0.1879751983    0.0000113358 | 
    1282 |     0.1879829858    0.0000113079 | 
    1283 |     0.1879886828    0.0000112876 | 
    1284 |     0.1880788467    0.0000109708 | 
    1285 |     0.1880962187    0.0000109107 | 
                          ------
    2560 |     0.9823883325    0.0000000000 | 

                       |  Abs_value |  Threshold | Converged
     Delta_Free_energy |   2.87E-04 |   1.00E-06 |        No
     Delta_Energy      |   2.87E-04 |   1.00E-04 |        No
     Delta_Entropy     |   4.82E-08 |   1.00E-04 |       Yes
     Commutator        |   9.11E-06 |   1.00E-05 |       Yes
     Delta_Fermi_level |   3.75E-04 |   1.00E-03 |       Yes

  Line search of the free energy minimum:
  Step_type        Step             Free_energy   Predicted_free_energy
.   Initial    0.000000    -3649.50894547446660
.    Trial1    0.254050    -3649.50901954094797
.    Trial2    0.538977    -3649.50902688082624
. Quadratic    0.422633    -3649.50903355388891    -3649.50903355572882

--------------------------------------------------------------------------------
  Iter                              Commutator    Free_energy(A=E-TS)     DeltaA
#    3                          0.000006215242   -3649.50903355388891  -8.81E-05

Step                       =       0.422633300652
Energy                     =   -3649.509005430629
Entropy (-TS)              =      -0.000028123014
Free energy (A=E-TS)       =   -3649.509033553889
Est. 0K Energy 0.5*(E+A)   =   -3649.509019492259
Residual Non-orthogonality =       0.000000000000
Residual N_electrons       =      -0.000000000246

Spin          Integrated_Ne            Fermi_level     Delta_Fermi_level
   1      2560.000000001624         0.151445296088             -4.68E-04

                           Spin 1          
     Orb      H-eigenvalues     Occupancies
       1 |    -0.5720985925    1.0000000000 | 
                          ------
    1276 |     0.1163195591    0.9999847639 | 
    1277 |     0.1168528339    0.9999819696 | 
    1278 |     0.1168664466    0.9999818920 | 
    1279 |     0.1169331560    0.9999815065 | 
    1280 |     0.1174806601    0.9999780162 | 
                 - Gap at zero temperature -
    1281 |     0.1875108766    0.0000113236 | 
    1282 |     0.1875181550    0.0000112976 | 
    1283 |     0.1875242128    0.0000112760 | 
    1284 |     0.1876165769    0.0000109519 | 
    1285 |     0.1876336306    0.0000108931 | 
                          ------
    2560 |     0.9815543687    0.0000000000 | 

                       |  Abs_value |  Threshold | Converged
     Delta_Free_energy |   8.81E-05 |   1.00E-06 |        No
     Delta_Energy      |   8.80E-05 |   1.00E-04 |       Yes
     Delta_Entropy     |   5.46E-08 |   1.00E-04 |       Yes
     Commutator        |   6.22E-06 |   1.00E-05 |       Yes
     Delta_Fermi_level |   4.68E-04 |   1.00E-03 |       Yes

  Line search of the free energy minimum:
  Step_type        Step             Free_energy   Predicted_free_energy
.   Initial    0.000000    -3649.50903355388891
.    Trial1    0.422633    -3649.50905573417049
.    Trial2    0.643168    -3649.50899329834147
. Quadratic    0.261607    -3649.50906926479956    -3649.50906926365906

--------------------------------------------------------------------------------
  Iter                              Commutator    Free_energy(A=E-TS)     DeltaA
#    4                          0.000003802585   -3649.50906926479956  -3.57E-05

Step                       =       0.261607067250
Energy                     =   -3649.509041123396
Entropy (-TS)              =      -0.000028141469
Free energy (A=E-TS)       =   -3649.509069264800
[...]
 C   160 -- C   385       -0.10      5.37000
 C   159 -- C   384       -0.10      5.37000
 C   158 -- C   383       -0.10      5.37000
 C   157 -- C   382       -0.10      5.37000
 C   156 -- C   381       -0.10      5.37000
 C   155 -- C   355       -0.10      5.37000
 C   154 -- C   354       -0.10      5.37000
 C   153 -- C   353       -0.10      5.37000
 C   152 -- C   352       -0.10      5.37000
 C   151 -- C   351       -0.10      5.37000
 C   140 -- C   335       -0.10      5.37000
 C   139 -- C   334       -0.10      5.37000
 C   138 -- C   333       -0.10      5.37000
 C   137 -- C   332       -0.10      5.37000
 C   136 -- C   331       -0.10      5.37000
 C   115 -- C   325       -0.10      5.37000
 C   114 -- C   324       -0.10      5.37000
 C   113 -- C   323       -0.10      5.37000
 C   112 -- C   322       -0.10      5.37000
 C   111 -- C   321       -0.10      5.37000
 C   285 -- C   580       -0.09      5.37202
 C   284 -- C   579       -0.09      5.37202
 C   283 -- C   578       -0.09      5.37202
 C   282 -- C   577       -0.09      5.37202
 C   281 -- C   576       -0.09      5.37202
 C   260 -- C   605       -0.09      5.37202
 C   259 -- C   604       -0.09      5.37202
 C   258 -- C   603       -0.09      5.37202
 C   257 -- C   602       -0.09      5.37202
 C   256 -- C   601       -0.09      5.37202
 C   219 -- C   569       -0.09      5.37202
 C   218 -- C   568       -0.09      5.37202
 C   217 -- C   567       -0.09      5.37202
 C   216 -- C   566       -0.09      5.37202
 C   205 -- C   550       -0.09      5.37202
 C   204 -- C   549       -0.09      5.37202
 C   203 -- C   548       -0.09      5.37202
 C   202 -- C   547       -0.09      5.37202
 C   201 -- C   546       -0.09      5.37202
 C   150 -- C   440       -0.09      5.37202
 C   149 -- C   439       -0.09      5.37202
 C   148 -- C   438       -0.09      5.37202
 C   147 -- C   437       -0.09      5.37202
 C   146 -- C   436       -0.09      5.37202
 C   135 -- C   460       -0.09      5.37202
 C   134 -- C   459       -0.09      5.37202
 C   133 -- C   458       -0.09      5.37202
 C   132 -- C   457       -0.09      5.37202
 C   131 -- C   456       -0.09      5.37202
 C   260 -- C   550       -0.09      5.37202
 C   259 -- C   549       -0.09      5.37202
 C   258 -- C   548       -0.09      5.37202
 C   257 -- C   547       -0.09      5.37202
 C   256 -- C   546       -0.09      5.37202
 C   250 -- C   540       -0.09      5.37202
 C   249 -- C   539       -0.09      5.37202
 C   248 -- C   538       -0.09      5.37202
 C   247 -- C   537       -0.09      5.37202
 C   246 -- C   536       -0.09      5.37202
 C   230 -- C   580       -0.09      5.37202
 C   230 -- C   525       -0.09      5.37202
 C   229 -- C   579       -0.09      5.37202
 C   229 -- C   524       -0.09      5.37202
 C   228 -- C   578       -0.09      5.37202
 C   228 -- C   523       -0.09      5.37202
 C   227 -- C   577       -0.09      5.37202
 C   227 -- C   522       -0.09      5.37202
 C   226 -- C   576       -0.09      5.37202
 C   226 -- C   521       -0.09      5.37202
 C   220 -- C   570       -0.09      5.37202
 C    95 -- C   425       -0.09      5.37202
 C    94 -- C   424       -0.09      5.37202
 C    93 -- C   423       -0.09      5.37202
 C    92 -- C   422       -0.09      5.37202
 C    91 -- C   421       -0.09      5.37202
 C   120 -- C   395       -0.09      5.37202
 C   119 -- C   394       -0.09      5.37202
 C   118 -- C   393       -0.09      5.37202
 C   117 -- C   392       -0.09      5.37202
 C   116 -- C   391       -0.09      5.37202
 C   106 -- C   436       -0.09      5.37202
 C   220 -- C   515       -0.09      5.37202
 C   219 -- C   514       -0.09      5.37202
 C   106 -- C   376       -0.09      5.37202
 C   218 -- C   513       -0.09      5.37202
 C   217 -- C   512       -0.09      5.37202
 C   216 -- C   511       -0.09      5.37202
 C    95 -- C   365       -0.10      5.37202
 C    94 -- C   364       -0.10      5.37202
 C   195 -- C   540       -0.09      5.37202
 C   195 -- C   500       -0.09      5.37202
 C    93 -- C   363       -0.09      5.37202
 C   194 -- C   539       -0.09      5.37202
 C   194 -- C   499       -0.09      5.37202
 C   193 -- C   538       -0.09      5.37202
 C   193 -- C   498       -0.09      5.37202
 C    92 -- C   362       -0.10      5.37202
 C   192 -- C   537       -0.09      5.37202
 C   192 -- C   497       -0.09      5.37202
 C   191 -- C   536       -0.09      5.37202
 C   191 -- C   496       -0.09      5.37202
 C    91 -- C   361       -0.10      5.37202
 C    85 -- C   355       -0.09      5.37202
 C   180 -- C   515       -0.09      5.37202
 C    84 -- C   354       -0.09      5.37202
 C   179 -- C   514       -0.09      5.37202
 C    83 -- C   353       -0.09      5.37202
 C   178 -- C   513       -0.09      5.37202
 C   177 -- C   512       -0.09      5.37202
 C    82 -- C   352       -0.09      5.37202
 C   176 -- C   511       -0.09      5.37202
 C    81 -- C   351       -0.09      5.37202
 C    80 -- C   410       -0.09      5.37202
 C    79 -- C   409       -0.09      5.37202
 C    78 -- C   408       -0.09      5.37202
 C    77 -- C   407       -0.09      5.37202
 C    76 -- C   406       -0.09      5.37202
 C    65 -- C   395       -0.10      5.37202
 C    64 -- C   394       -0.10      5.37202
 C    63 -- C   393       -0.10      5.37202
 C   135 -- C   410       -0.09      5.37202
 C    62 -- C   392       -0.10      5.37202
 C   134 -- C   409       -0.09      5.37202
 C   133 -- C   408       -0.09      5.37202
 C    61 -- C   391       -0.10      5.37202
 C   132 -- C   407       -0.09      5.37202
 C   131 -- C   406       -0.09      5.37202
 C    55 -- C   385       -0.09      5.37202
 C    54 -- C   384       -0.09      5.37202
 C    53 -- C   383       -0.09      5.37202
 C    52 -- C   382       -0.09      5.37202
 C   110 -- C   440       -0.09      5.37202
 C    51 -- C   381       -0.09      5.37202
 C   110 -- C   380       -0.09      5.37202
 C   109 -- C   439       -0.09      5.37202
 C   109 -- C   379       -0.09      5.37202
 C   108 -- C   438       -0.09      5.37202
 C   108 -- C   378       -0.09      5.37202
 C   107 -- C   437       -0.09      5.37202
 C   107 -- C   377       -0.09      5.37202
 C    40 -- C   365       -0.09      5.37202
 C    39 -- C   364       -0.09      5.37202
 C    38 -- C   363       -0.09      5.37202
 C    37 -- C   362       -0.09      5.37202
 C    36 -- C   361       -0.09      5.37202
 C    65 -- C   345       -0.09      5.37202
 C    64 -- C   344       -0.09      5.37202
 C    30 -- C   355       -0.10      5.37202
 C    63 -- C   343       -0.09      5.37202
 C    62 -- C   342       -0.09      5.37202
 C    29 -- C   354       -0.10      5.37202
 C    61 -- C   341       -0.09      5.37202
 C    28 -- C   353       -0.10      5.37202
 C    27 -- C   352       -0.10      5.37202
 C    26 -- C   351       -0.10      5.37202
 C    55 -- C   335       -0.10      5.37202
 C    54 -- C   334       -0.10      5.37202
 C    53 -- C   333       -0.09      5.37202
 C    52 -- C   332       -0.10      5.37202
 C    51 -- C   331       -0.09      5.37202
 C    11 -- C   331       -0.09      5.37202
 C    15 -- C   335       -0.09      5.37202
 C    30 -- C   325       -0.09      5.37202
 C    14 -- C   334       -0.09      5.37202
 C    29 -- C   324       -0.09      5.37202
 C    28 -- C   323       -0.09      5.37202
 C    13 -- C   333       -0.09      5.37202
 C    27 -- C   322       -0.09      5.37202
 C    26 -- C   321       -0.09      5.37202
 C    12 -- C   332       -0.10      5.37202
 C    23 -- C   478       -0.09      5.37202
 C    49 -- C   469       -0.09      5.37202
 C    48 -- C   468       -0.09      5.37202
 C    47 -- C   467       -0.09      5.37202
 C    22 -- C   477       -0.09      5.37202
 C    46 -- C   466       -0.09      5.37202
 C    21 -- C   476       -0.09      5.37202
 C    25 -- C   480       -0.09      5.37202
 C    24 -- C   479       -0.09      5.37202
 C    50 -- C   470       -0.09      5.37202
 C    24 -- C   449       -0.09      5.37202
 C     6 -- C   416       -0.09      5.37202
 C    23 -- C   448       -0.09      5.37202
 C    22 -- C   447       -0.09      5.37202
 C    10 -- C   470       -0.09      5.37202
 C     5 -- C   450       -0.09      5.37202
 C    21 -- C   446       -0.09      5.37202
 C    10 -- C   420       -0.09      5.37202
 C     9 -- C   469       -0.09      5.37202
 C     9 -- C   419       -0.09      5.37202
 C     8 -- C   468       -0.09      5.37202
 C     4 -- C   449       -0.09      5.37202
 C     8 -- C   418       -0.09      5.37202
 C     2 -- C   447       -0.09      5.37202
 C     7 -- C   467       -0.09      5.37202
 C     7 -- C   417       -0.09      5.37202
 C     1 -- C   446       -0.09      5.37202
 C     6 -- C   466       -0.09      5.37202
 C    25 -- C   450       -0.09      5.37202
 C     3 -- C   448       -0.09      5.37202
 C   215 -- C   635       -0.10      5.38000
 C   214 -- C   634       -0.10      5.38000
 C   213 -- C   633       -0.10      5.38000
 C   212 -- C   632       -0.10      5.38000
 C   211 -- C   631       -0.10      5.38000
 C   190 -- C   620       -0.10      5.38000
 C   189 -- C   619       -0.10      5.38000
 C   188 -- C   618       -0.10      5.38000
 C   187 -- C   617       -0.10      5.38000
 C   186 -- C   616       -0.10      5.38000
 C   175 -- C   595       -0.10      5.38000
 C   174 -- C   594       -0.10      5.38000
 C   173 -- C   593       -0.10      5.38000
 C   172 -- C   592       -0.10      5.38000
 C   171 -- C   591       -0.10      5.38000
 C   245 -- C   640       -0.10      5.38000
 C   244 -- C   639       -0.10      5.38000
 C   243 -- C   638       -0.10      5.38000
 C   242 -- C   637       -0.10      5.38000
 C   241 -- C   636       -0.10      5.38000
==================================================


=================== Orbital energy and occupancy information ===================

      Total number of orbitals:    2560
        Occupancy sum (kernel):    1280.000000000
   Occupancy sum (eigenvalues):    1280.000000000
                 HOMO-LUMO gap:       0.066843162 Eh
                 Mid-gap level:       0.210421463 Eh

                        Orbital | Energy (Eh) | Occupancy
                            1    -0.508960426   1.0000000
                        .......   ...........   .........
                         1271     0.173052922   0.9999885
                         1272     0.173092738   0.9999883
                         1273     0.173524198   0.9999866
                         1274     0.173563951   0.9999865
                         1275     0.175661695   0.9999737
                         1276     0.175671362   0.9999737
                         1277     0.176132125   0.9999695
                         1278     0.176141754   0.9999694
                         1279     0.176531250   0.9999654
                         1280     0.176999882   0.9999599
                        ....... -- gap at 0K -- .........
                         1281     0.243843044   0.0000169
                         1282     0.243880964   0.0000167
                         1283     0.244090803   0.0000157
                         1284     0.244128594   0.0000155
                         1285     0.244211954   0.0000151
                         1286     0.244221512   0.0000151
                         1287     0.244422867   0.0000141
                         1288     0.244450983   0.0000140
                         1289     0.244460676   0.0000139
                         1290     0.244468972   0.0000139
                        .......   ...........   .........
                         2560     1.101670916   0.0000000

================================================================================

===================== Writing canonical molecular orbitals =====================
| Orbital  Energy (eV)  Norm     |
| HOMO      4.81641187  1.000000 | Writing "3.8101304_GO_manual_4x64graphite_HOMO.cube" ... done
Writing "3.8101304_GO_manual_4x64graphite_HOMO.dx" ... done
| LUMO      6.63530686  1.000000 | Writing "3.8101304_GO_manual_4x64graphite_LUMO.cube" ... done
Writing "3.8101304_GO_manual_4x64graphite_LUMO.dx" ... done
================================================================================
 
===================== Density of States (DOS) calculation ======================
Writing "3.8101304_GO_manual_4x64graphite_DOS.txt" ...  done
================================================================================
 
Writing bands to file "3.8101304_GO_manual_4x64graphite.val_bands" ... done
 
================ Projected Density of States (pDOS) calculation ================
 
Constructing AM resolved functions  ...... done
Writing NGWF plot files in formats: CUBE DX ...  done
 
Performing overlap integrals ...  done
 
Computing pDOS weights ...  done
 
All bands spilling parameter =   3.00 %
Occupancy-weighted spilling parameter =   0.93 %
 
 => Outputting data for OptaDOS <=
 
Writing pDOS weights to file "3.8101304_GO_manual_4x64graphite.val_pdos_bin" ... done
 
Writing band gradients to file "3.8101304_GO_manual_4x64graphite.val_dome_bin" ... done
 
Writing Castep output cell file to "3.8101304_GO_manual_4x64graphite-out.cell" ... done
 
 => Computing Gaussian smeared pDOS <= 
Writing "3.8101304_GO_manual_4x64graphite_PDOS.txt" ...  done
 
 => Computing Occupancy-weighted Gaussian smeared pDOS <= 
Writing "3.8101304_GO_manual_4x64graphite_occ_PDOS.txt" ...  done
  => Band centres: 
 S band centre of group 1:  -13.767602 eV
 P band centre of group 1:   -6.644701 eV
  Band centres done. <=
  => Integrated number of electrons in each AM band: 
 S num electrons of group 1:  574.038180
 P num electrons of group 1: 1962.044847
  Integrated number of electrons done. <=
================================================================================

------------------------------ TIMING INFORMATION ------------------------------
AVERAGE TIME:    3092.636s on     40 node(s)                                    
TOTAL TIME:      3092.636s on     40 node(s)                                    
================= AVERAGE TIMINGS FROM ALL NODES (CUMULATIVE) ==================
|| TAG                                    #calls    cpu time   %total  Gflops ||
|| work_imbalance                       :     1        0.00s   0.000%  ------ ||
|| paw_tcore_hartree_on_grid            :     1        0.01s   0.000%  ------ ||
|| paw_tcore_density                    :     1        0.01s   0.000%  ------ ||
|| paw_sphere_density_on_grid           :     1        0.01s   0.000%  ------ ||
|| sparse_set_to_garbage                :   135        0.02s   0.001%  ------ ||
|| paw_dij_hartree                      :   279        0.04s   0.001%  ------ ||
|| pseudo_make_structure_factor         :     1        0.06s   0.002%  ------ ||
|| basis_extract_function_from_box      :  1536        0.07s   0.002%  ------ ||
|| paw_species_calc_proj_prec_mat       :     1        0.12s   0.004%  ------ ||
|| paw_dataset_init                     :     1        0.15s   0.005%  ------ ||
|| density_init_guess_real              :     1        0.18s   0.006%  ------ ||
|| restart_kernel_write                 :    13        0.57s   0.019%  ------ ||
|| ngwfs_initialise_from_radial         :     2        0.66s   0.021%  ------ ||
|| sparse_init                          :     1        0.85s   0.028%  ------ ||
|| dense_normal_eigensolve              :     1        0.99s   0.032%  ------ ||
|| hartree_on_grid                      :   209        1.54s   0.050%  ------ ||
|| projectors_init_fftbox_recip         :   121        2.33s   0.075%  ------ ||
|| ewald_calculate_energy               :     1        3.18s   0.103%  ------ ||
|| fourier_apply_box_pair               :  2272        3.76s   0.122% 560.201 ||
|| basis_copy_function_to_box           : 19968        4.33s   0.140%  ------ ||
|| augmentation_screen_dij              :   214        4.68s   0.151%  ------ ||
|| sparse_embed_hotelling_invert_embed  :    23        6.56s   0.212%  ------ ||
|| sw_init                              :     1        6.73s   0.218%  ------ ||
|| ngwf_gradient_coeffs                 :    12        8.32s   0.269%  ------ ||
|| sparse_trace                         :  2524       11.18s   0.361%  ------ ||
|| cell_grid_extract_box_real           :  8492       15.17s   0.491%  ------ ||
|| cell_grid_deposit_box_real           : 26928       16.22s   0.525%  ------ ||
|| fourier_apply_cell_backward          :  6450       18.96s   0.613%  45.768 ||
|| paw_dij_xc                           :   279       20.14s   0.651%  ------ ||
|| fourier_apply_cell_forward           :  6033       20.58s   0.665%  39.437 ||
|| aug_nonlocal_mat                     :   267       28.76s   0.930%  ------ ||
|| density_fftbox_deposit_to_cell       : 13376       32.23s   1.042%  ------ ||
|| augmentation_density_on_grid         :   209       35.69s   1.154%  ------ ||
|| hamiltonian_energy_components        :     3       47.04s   1.521%  ------ ||
|| function_ops_brappd_ketppd           :    48       47.46s   1.535%  ------ ||
|| projectors_func_ovlp_box             :    24       53.31s   1.724%  ------ ||
|| eigenstates_pdos                     :     1       54.02s   1.747%  ------ ||
|| eigenstates_calculate                :     1       58.40s   1.888%  ------ ||
|| xc_energy_potential                  :   208       75.73s   2.449%  ------ ||
|| integrals_kinetic                    :    23       76.88s   2.486%  ------ ||
|| nlxc_vdw_energy                      :   416       84.17s   2.722%  ------ ||
|| dense_eigensolve                     :   182       93.15s   3.012%  ------ ||
|| sparse_product                       :  2561       98.80s   3.195%  ------ ||
|| potential_apply_to_ngwf_batch        :   268      103.85s   3.358%  ------ ||
|| properties_calculate                 :     1      107.30s   3.470%  ------ ||
|| restart_ngwfs_tightbox_output        :    11      116.77s   3.776%  ------ ||
|| basis_dot_function_with_box          : 6.224M     172.61s   5.581%  ------ ||
|| fourier_apply_box                    : 62864      195.41s   6.318% 978.460 ||
|| edft_diag_ngwf_ham                   :   181      205.15s   6.633%  ------ ||
|| projectors_gradient_batch            :    48      218.28s   7.058%  ------ ||
|| integrals_locpot_mat_els_batch       :   268      230.29s   7.446%  ------ ||
|| density_fftbox_interpolate_multiply  : 13376      259.38s   8.387%  ------ ||
|| projectors_grad_precond_batch        :    48      301.10s   9.736%  ------ ||
|| density_batch_interp_deposit         :   836      322.07s  10.414%  ------ ||
|| integrals_locpot_dbl_grid            :    67      335.31s  10.842%  ------ ||
|| edft_apply_smearing_operator         :   181      395.61s  12.792%  ------ ||
|| basis_add_function_to_box            : 17.24M     461.40s  14.919%  ------ ||
|| ngwf_gradient_build_batch            :    48      555.62s  17.966%  ------ ||
|| density_batch_row_sums               :   836      643.73s  20.815%  ------ ||
|| ngwf_gradient_batch                  :    48      737.43s  23.845%  ------ ||
|| ngwf_gradient_lnv                    :    12      759.47s  24.557%  ------ ||
|| density_on_dbl_grid                  :   209      977.88s  31.620%  ------ ||
|| hamiltonian_lhxc_calculate           :   204     1072.06s  34.665%  ------ ||
|| edft_calculate                       :    12     1781.01s  57.589%  ------ ||
|| ngwf_cg_optimise                     :     1     2965.47s  95.888%  ------ ||
|| total_time                           :     1     3092.64s 100.000%  ------ ||
================================================================================
Overhead of generating timer report: 
- 0 ms averaging over threads,
- 5 ms ensuring consistency across MPI ranks,
- 0 ms printing in order.

Job completed: 29-02-2020 13:15 (-0000)

