 +---------------------------------------------------------------+
 |                                                               |
 |        ####### #     # ####### ####### ####### ######         |
 |        #     # ##    # #          #    #       #     #        |
 |        #     # # #   # #          #    #       #     #        |
 |        #     # #  #  # #####      #    #####   ######         |
 |        #     # #   # # #          #    #       #              |
 |        #     # #    ## #          #    #       #              |
 |        ####### #     # #######    #    ####### #              |
 |                                                               |
 |        Linear-Scaling Ab Initio Total Energy Program          |
 |                                                               |
 |          Release for academic collaborators of ODG            |
 |                                             Version 5.3.2.12  |
 |                                                               |
 +---------------------------------------------------------------+
 |                                                               |
 |  Authors:                                                     |
 |  Jacek Dziedzic, Peter D. Haynes, Nicholas D. M. Hine,        |
 |  Arash. A. Mostofi, Mike C. Payne and Chris-Kriton Skylaris   |
 |                                                               |
 |  Contributors:                                                |
 |  J. Aarons, L. Andrinopoulos, P. W. Avraam, R. A. Bell,       |
 |  A. Bhandari, G. A. Bramley, R. J. Charlton, S. J. Clark,     |
 |  R. J. Clements, G. C. Constantinescu, F. Corsetti,           |
 |  N. Corsini, O. Dieguez, S. M. M. Dubois, K. K. B. Duff,      |
 |  J. M. Escartin, A. Greco, H. Helal, Q. O. Hill, L. P. Lee,   |
 |  J.-H. Li, E. B. Linscott, G. Moynihan, D. D. O`Regan,        |
 |  O. K. Okan, M. J. S. Phipps, C. J. Pickard,                  |
 |  J. C. A. Prentice, M. I. J. Probert, L. E. Ratcliff,         |
 |  M. Robinson, A. Ruiz Serrano, J. S. Spencer, E. W. Tait,     |
 |  G. Teobaldi, D. Turban, V. Vitale, K. A. Wilkinson,          |
 |  C. Weber, J. C. Womack, N. Yeung and T. J. Zuehlsdorff       |
 |                                                               |
 |                                   Copyright (c) 2004-2020     |
 |                                                               |
 |  Please cite:                                                 |
 |  "Introducing ONETEP: Linear-scaling density functional       |
 |   simulations on parallel computers".                         |
 |   C.-K. Skylaris, P. D. Haynes, A. A. Mostofi, M. C. Payne.   |
 |   J. Chem. Phys. 122 084119 (2005).                           |
 |                                                               |
 |          in all publications arising from your use of ONETEP. |
 |                                                               |
 +---------------------------------------------------------------+
 |                                                               |
 |   ONETEP is based on developments described in the following  |
 |   publications:                                               |
 |                                                               |
 |  "Nonorthogonal generalized Wannier function pseudopotential  |
 |   plane-wave method".                                         |
 |   C.-K. Skylaris, A. A. Mostofi, P. D. Haynes, O. Dieguez,    |
 |   M. C. Payne.                                                |
 |   Phys. Rev. B 66 035119 (2002).                              |
 |                                                               |
 |  "Preconditioned iterative minimization for linear-scaling    |
 |   electronic structure calculations".                         |
 |   A. A. Mostofi, P. D. Haynes, C.-K. Skylaris, M. C. Payne.   |
 |   J. Chem. Phys. 119(17), pp.8842-8848 (2003).                |
 |                                                               |
 |  "Total-energy calculations on a real space grid with         |
 |   localized functions and a plane-wave basis".                |
 |   A. A. Mostofi, C.-K. Skylaris, P. D. Haynes, M. C. Payne.   |
 |   Comput. Phys. Commun. 147, pp.788-802 (2002).               |
 |                                                               |
 |  "Accurate kinetic energy evaluation in electronic structure  |
 |   calculations with localized functions on real space grids"  |
 |   C.-K. Skylaris, A. A. Mostofi, P. D. Haynes, C. J. Pickard, |
 |   M. C. Payne.                                                |
 |   Comput. Phys. Commun. 140, pp.315-322 (2001).               |
 |                                                               |
 |  "Accurate ionic forces and geometry optimization in linear-  |
 |   scaling density-functional theory with local orbitals"      |
 |   N. D. M. Hine, M. Robinson, P. D. Haynes, C.-K. Skylaris,   |
 |   M. C. Payne, and A. A. Mostofi.                             |
 |   Phys. Rev. B 83 195102 (2011).                              |
 |                                                               |
 +---------------------------------------------------------------+

Job started: 05-03-2020 19:05 (-0000)
 
Reading parameters from file "4.158936_GO_manual_4x64graphite.dat" ...

WARNING: "cutoff_energy" not specified, but "psinc_spacing" specified.
         Using the latter to set the KE cutoff energy to  732.32021eV,
         thus *overriding* the default.

... done

If your calculation crashes here, before "Checking processes and threads..."
is displayed, then your stack size is insufficient.
If so, use "ulimit -s unlimited" at runtime.
You can disable this check with "check_stack_size F".

Checking processes and threads...
   Determining the default number of threads...
      No default threads set at compilation time: defaulting to 1.
      OpenMP library call suggests 4 threads.
      Hybrid MPI-OpenMP compilation detected.
      Number of MPI processes > 1.
      OMP_NUM_THREADS environment variable present and
      its value matches the one obtained from the OpenMP library call.
      Using this value as default.
      Default threads: 4
      Default applies to threads_max and threads_num_fftboxes.
      Settings in the input file override this default.
   ... done

   Running with 40 MPI processes.
   There are 10 MPI processes running on the same node as the root process.
   Each MPI process is using: 
               1 threads for simulation cell FFTs.
               1 threads for parallel FFT box operations.
               4 threads for loops over batched FFT box operations.
               4 threads in other parallel regions.
... done

Basic input checks...
Resetting ngwf_cg_rotate to TRUE for EDFT calculations
... done

Reading geometry and species blocks from file "4.158936_GO_manual_4x64graphite.dat" ...
    
  PSINC grid spacing along a1 set to   0.511215680000a0 from input file.
  PSINC grid spacing along a2 set to   0.531284090000a0 from input file.
  PSINC grid spacing along a3 set to   0.507049430000a0 from input file.
  Number of PPD points along a3 set to 1.  This is 
  the default value, it may have been provided also in the input file.
... done
 Writing xyz coordinates to file "4.158936_GO_manual_4x64graphite.xyz" ... done


--------------------------------------------------------------------------------
---------------------------------- INPUT FILE ----------------------------------
--------------------------------------------------------------------------------

task : singlepoint                                                              
do_properties : true                                                            
dx_format T                                                                     
edft T                                                                          
output_detail VERBOSE                                                           
write_xyz T                                                                     
xc_functional VV10                                                              
PSINC_SPACING 0.51121568 0.53128409 0.50704943                                  
paw T                                                                           
pdos_max_l = 2                                                                  
dos_smear  0.1 eV                                                               
popn_calculate T                                                                
PDOS_PSEUDOATOMIC T                                                             
PDOS_REDUCE_SWS F                                                               
PDOS_CONSTRUCT_BASIS F                                                          
PDOS_LOWDIN T                                                                   
PDOS_ORTH_ATOM_BLOCKS F                                                         
PDOS_LCAO_OPTIMIZE F                                                            
pdos_optados_output T                                                           
homo_plot 0                                                                     
lumo_plot 0                                                                     
homo_dens_plot -1                                                               
lumo_dens_plot -1                                                               
%BLOCK SPECIES                                                                  
C C 6 4 9.0                                                                     
%ENDBLOCK SPECIES                                                               
%BLOCK SPECIES_POT                                                              
C "~/pp/paw/c_pbe_abinit.paw"                                                   
%ENDBLOCK SPECIES_POT                                                           
%BLOCK SPECIES_ATOMIC_SET                                                       
C "SOLVE conf=2s2 2p2"                                                          
%ENDBLOCK SPECIES_ATOMIC_SET                                                    
%BLOCK LATTICE_CART                                                             
32.21  0.00  0.00                                                               
0.00 18.59  0.00                                                                
0.00  0.00 78.59                                                                
%ENDBLOCK LATTICE_CART                                                          
%BLOCK POSITIONS_ABS                                                            
C  0.00  0.00  3.93                                                             
C  0.00  0.00 19.65                                                             
C  0.00  0.00 35.37                                                             
C  0.00  0.00 51.09                                                             
C  0.00  0.00 66.80                                                             
C  0.00  4.65  3.93                                                             
C  0.00  4.65 19.65                                                             
C  0.00  4.65 35.37                                                             
C  0.00  4.65 51.09                                                             
C  0.00  4.65 66.80                                                             
C  4.03  2.32  3.93                                                             
C  4.03  2.32 19.65                                                             
C  4.03  2.32 35.37                                                             
C  4.03  2.32 51.09                                                             
C  4.03  2.32 66.80                                                             
C  8.05  0.00  3.93                                                             
C  8.05  0.00 19.65                                                             
C  8.05  0.00 35.37                                                             
C  8.05  0.00 51.09                                                             
C  8.05  0.00 66.80                                                             
C  0.00  9.30  3.93                                                             
C  0.00  9.30 19.65                                                             
C  0.00  9.30 35.37                                                             
C  0.00  9.30 51.09                                                             
C  0.00  9.30 66.80                                                             
C  4.03  6.97  3.93                                                             
C  4.03  6.97 19.65                                                             
C  4.03  6.97 35.37                                                             
C  4.03  6.97 51.09                                                             
C  4.03  6.97 66.80                                                             
C  8.05  4.65  3.93                                                             
C  8.05  4.65 19.65                                                             
C  8.05  4.65 35.37                                                             
C  8.05  4.65 51.09                                                             
C  8.05  4.65 66.80                                                             
C 12.08  2.32  3.93                                                             
C 12.08  2.32 19.65                                                             
C 12.08  2.32 35.37                                                             
C 12.08  2.32 51.09                                                             
C 12.08  2.32 66.80                                                             
C 16.10  0.00  3.93                                                             
C 16.10  0.00 19.65                                                             
C 16.10  0.00 35.37                                                             
C 16.10  0.00 51.09                                                             
C 16.10  0.00 66.80                                                             
C  0.00 13.95  3.93                                                             
C  0.00 13.95 19.65                                                             
C  0.00 13.95 35.37                                                             
C  0.00 13.95 51.09                                                             
C  0.00 13.95 66.80                                                             
C  4.03 11.62  3.93                                                             
C  4.03 11.62 19.65                                                             
C  4.03 11.62 35.37                                                             
C  4.03 11.62 51.09                                                             
C  4.03 11.62 66.80                                                             
C  8.05  9.30  3.93                                                             
C  8.05  9.30 19.65                                                             
C  8.05  9.30 35.37                                                             
C  8.05  9.30 51.09                                                             
C  8.05  9.30 66.80                                                             
C 12.08  6.97  3.93                                                             
C 12.08  6.97 19.65                                                             
C 12.08  6.97 35.37                                                             
C 12.08  6.97 51.09                                                             
C 12.08  6.97 66.80                                                             
C 16.10  4.65  3.93                                                             
C 16.10  4.65 19.65                                                             
C 16.10  4.65 35.37                                                             
C 16.10  4.65 51.09                                                             
C 16.10  4.65 66.80                                                             
C 20.13  2.32  3.93                                                             
C 20.13  2.32 19.65                                                             
C 20.13  2.32 35.37                                                             
C 20.13  2.32 51.09                                                             
C 20.13  2.32 66.80                                                             
C 24.16  0.00  3.93                                                             
C 24.16  0.00 19.65                                                             
C 24.16  0.00 35.37                                                             
C 24.16  0.00 51.09                                                             
C 24.16  0.00 66.80                                                             
C  4.03 16.27  3.93                                                             
C  4.03 16.27 19.65                                                             
C  4.03 16.27 35.37                                                             
C  4.03 16.27 51.09                                                             
C  4.03 16.27 66.80                                                             
C  8.05 13.95  3.93                                                             
C  8.05 13.95 19.65                                                             
C  8.05 13.95 35.37                                                             
C  8.05 13.95 51.09                                                             
C  8.05 13.95 66.80                                                             
C 12.08 11.62  3.93                                                             
C 12.08 11.62 19.65                                                             
C 12.08 11.62 35.37                                                             
C 12.08 11.62 51.09                                                             
C 12.08 11.62 66.80                                                             
C 16.10  9.30  3.93                                                             
C 16.10  9.30 19.65                                                             
C 16.10  9.30 35.37                                                             
C 16.10  9.30 51.09                                                             
C 16.10  9.30 66.80                                                             
C 20.13  6.97  3.93                                                             
C 20.13  6.97 19.65                                                             
C 20.13  6.97 35.37                                                             
C 20.13  6.97 51.09                                                             
C 20.13  6.97 66.80                                                             
C 24.16  4.65  3.93                                                             
C 24.16  4.65 19.65                                                             
C 24.16  4.65 35.37                                                             
C 24.16  4.65 51.09                                                             
C 24.16  4.65 66.80                                                             
C 28.18  2.32  3.93                                                             
C 28.18  2.32 19.65                                                             
C 28.18  2.32 35.37                                                             
C 28.18  2.32 51.09                                                             
C 28.18  2.32 66.80                                                             
C 12.08 16.27  3.93                                                             
C 12.08 16.27 19.65                                                             
C 12.08 16.27 35.37                                                             
C 12.08 16.27 51.09                                                             
C 12.08 16.27 66.80                                                             
C 16.10 13.95  3.93                                                             
C 16.10 13.95 19.65                                                             
C 16.10 13.95 35.37                                                             
C 16.10 13.95 51.09                                                             
C 16.10 13.95 66.80                                                             
C 20.13 11.62  3.93                                                             
C 20.13 11.62 19.65                                                             
C 20.13 11.62 35.37                                                             
C 20.13 11.62 51.09                                                             
C 20.13 11.62 66.80                                                             
C 24.16  9.30  3.93                                                             
C 24.16  9.30 19.65                                                             
C 24.16  9.30 35.37                                                             
C 24.16  9.30 51.09                                                             
C 24.16  9.30 66.80                                                             
C 28.18  6.97  3.93                                                             
C 28.18  6.97 19.65                                                             
C 28.18  6.97 35.37                                                             
C 28.18  6.97 51.09                                                             
C 28.18  6.97 66.80                                                             
C 20.13 16.27  3.93                                                             
C 20.13 16.27 19.65                                                             
C 20.13 16.27 35.37                                                             
C 20.13 16.27 51.09                                                             
C 20.13 16.27 66.80                                                             
C 24.16 13.95  3.93                                                             
C 24.16 13.95 19.65                                                             
C 24.16 13.95 35.37                                                             
C 24.16 13.95 51.09                                                             
C 24.16 13.95 66.80                                                             
C 28.18 11.62  3.93                                                             
C 28.18 11.62 19.65                                                             
C 28.18 11.62 35.37                                                             
C 28.18 11.62 51.09                                                             
C 28.18 11.62 66.80                                                             
C 28.18 16.27  3.93                                                             
C 28.18 16.27 19.65                                                             
C 28.18 16.27 35.37                                                             
C 28.18 16.27 51.09                                                             
C 28.18 16.27 66.80                                                             
C  0.00  0.00 11.79                                                             
C  0.00  0.00 27.51                                                             
C  0.00  0.00 43.23                                                             
C  0.00  0.00 58.94                                                             
C  0.00  0.00 74.66                                                             
C  0.00  4.65 11.79                                                             
C  0.00  4.65 27.51                                                             
C  0.00  4.65 43.23                                                             
C  0.00  4.65 58.94                                                             
C  0.00  4.65 74.66                                                             
C  4.03  2.32 11.79                                                             
C  4.03  2.32 27.51                                                             
C  4.03  2.32 43.23                                                             
C  4.03  2.32 58.94                                                             
C  4.03  2.32 74.66                                                             
C  8.05  0.00 11.79                                                             
C  8.05  0.00 27.51                                                             
C  8.05  0.00 43.23                                                             
C  8.05  0.00 58.94                                                             
C  8.05  0.00 74.66                                                             
C  0.00  9.30 11.79                                                             
C  0.00  9.30 27.51                                                             
C  0.00  9.30 43.23                                                             
C  0.00  9.30 58.94                                                             
C  0.00  9.30 74.66                                                             
C  4.03  6.97 11.79                                                             
C  4.03  6.97 27.51                                                             
C  4.03  6.97 43.23                                                             
C  4.03  6.97 58.94                                                             
C  4.03  6.97 74.66                                                             
C  8.05  4.65 11.79                                                             
C  8.05  4.65 27.51                                                             
C  8.05  4.65 43.23                                                             
C  8.05  4.65 58.94                                                             
C  8.05  4.65 74.66                                                             
C 12.08  2.32 11.79                                                             
C 12.08  2.32 27.51                                                             
C 12.08  2.32 43.23                                                             
C 12.08  2.32 58.94                                                             
C 12.08  2.32 74.66                                                             
C 16.10  0.00 11.79                                                             
C 16.10  0.00 27.51                                                             
C 16.10  0.00 43.23                                                             
C 16.10  0.00 58.94                                                             
C 16.10  0.00 74.66                                                             
C  0.00 13.95 11.79                                                             
C  0.00 13.95 27.51                                                             
C  0.00 13.95 43.23                                                             
C  0.00 13.95 58.94                                                             
C  0.00 13.95 74.66                                                             
C  4.03 11.62 11.79                                                             
C  4.03 11.62 27.51                                                             
C  4.03 11.62 43.23                                                             
C  4.03 11.62 58.94                                                             
C  4.03 11.62 74.66                                                             
C  8.05  9.30 11.79                                                             
C  8.05  9.30 27.51                                                             
C  8.05  9.30 43.23                                                             
C  8.05  9.30 58.94                                                             
C  8.05  9.30 74.66                                                             
C 12.08  6.97 11.79                                                             
C 12.08  6.97 27.51                                                             
C 12.08  6.97 43.23                                                             
C 12.08  6.97 58.94                                                             
C 12.08  6.97 74.66                                                             
C 16.10  4.65 11.79                                                             
C 16.10  4.65 27.51                                                             
C 16.10  4.65 43.23                                                             
C 16.10  4.65 58.94                                                             
C 16.10  4.65 74.66                                                             
C 20.13  2.32 11.79                                                             
C 20.13  2.32 27.51                                                             
C 20.13  2.32 43.23                                                             
C 20.13  2.32 58.94                                                             
C 20.13  2.32 74.66                                                             
C 24.16  0.00 11.79                                                             
C 24.16  0.00 27.51                                                             
C 24.16  0.00 43.23                                                             
C 24.16  0.00 58.94                                                             
C 24.16  0.00 74.66                                                             
C  4.03 16.27 11.79                                                             
C  4.03 16.27 27.51                                                             
C  4.03 16.27 43.23                                                             
C  4.03 16.27 58.94                                                             
C  4.03 16.27 74.66                                                             
C  8.05 13.95 11.79                                                             
C  8.05 13.95 27.51                                                             
C  8.05 13.95 43.23                                                             
C  8.05 13.95 58.94                                                             
C  8.05 13.95 74.66                                                             
C 12.08 11.62 11.79                                                             
C 12.08 11.62 27.51                                                             
C 12.08 11.62 43.23                                                             
C 12.08 11.62 58.94                                                             
C 12.08 11.62 74.66                                                             
C 16.10  9.30 11.79                                                             
C 16.10  9.30 27.51                                                             
C 16.10  9.30 43.23                                                             
C 16.10  9.30 58.94                                                             
C 16.10  9.30 74.66                                                             
C 20.13  6.97 11.79                                                             
C 20.13  6.97 27.51                                                             
C 20.13  6.97 43.23                                                             
C 20.13  6.97 58.94                                                             
C 20.13  6.97 74.66                                                             
C 24.16  4.65 11.79                                                             
C 24.16  4.65 27.51                                                             
C 24.16  4.65 43.23                                                             
C 24.16  4.65 58.94                                                             
C 24.16  4.65 74.66                                                             
C 28.18  2.32 11.79                                                             
C 28.18  2.32 27.51                                                             
C 28.18  2.32 43.23                                                             
C 28.18  2.32 58.94                                                             
C 28.18  2.32 74.66                                                             
C 12.08 16.27 11.79                                                             
C 12.08 16.27 27.51                                                             
C 12.08 16.27 43.23                                                             
C 12.08 16.27 58.94                                                             
C 12.08 16.27 74.66                                                             
C 16.10 13.95 11.79                                                             
C 16.10 13.95 27.51                                                             
C 16.10 13.95 43.23                                                             
C 16.10 13.95 58.94                                                             
C 16.10 13.95 74.66                                                             
C 20.13 11.62 11.79                                                             
C 20.13 11.62 27.51                                                             
C 20.13 11.62 43.23                                                             
C 20.13 11.62 58.94                                                             
C 20.13 11.62 74.66                                                             
C 24.16  9.30 11.79                                                             
C 24.16  9.30 27.51                                                             
C 24.16  9.30 43.23                                                             
C 24.16  9.30 58.94                                                             
C 24.16  9.30 74.66                                                             
C 28.18  6.97 11.79                                                             
C 28.18  6.97 27.51                                                             
C 28.18  6.97 43.23                                                             
C 28.18  6.97 58.94                                                             
C 28.18  6.97 74.66                                                             
C 20.13 16.27 11.79                                                             
C 20.13 16.27 27.51                                                             
C 20.13 16.27 43.23                                                             
C 20.13 16.27 58.94                                                             
C 20.13 16.27 74.66                                                             
C 24.16 13.95 11.79                                                             
C 24.16 13.95 27.51                                                             
C 24.16 13.95 43.23                                                             
C 24.16 13.95 58.94                                                             
C 24.16 13.95 74.66                                                             
C 28.18 11.62 11.79                                                             
C 28.18 11.62 27.51                                                             
C 28.18 11.62 43.23                                                             
C 28.18 11.62 58.94                                                             
C 28.18 11.62 74.66                                                             
C 28.18 16.27 11.79                                                             
C 28.18 16.27 27.51                                                             
C 28.18 16.27 43.23                                                             
C 28.18 16.27 58.94                                                             
C 28.18 16.27 74.66                                                             
C  1.34  2.32  3.93                                                             
C  1.34  2.32 19.65                                                             
C  1.34  2.32 35.37                                                             
C  1.34  2.32 51.09                                                             
C  1.34  2.32 66.80                                                             
C  5.37  0.00  3.93                                                             
C  5.37  0.00 19.65                                                             
C  5.37  0.00 35.37                                                             
C  5.37  0.00 51.09                                                             
C  5.37  0.00 66.80                                                             
C  1.34  6.97  3.93                                                             
C  1.34  6.97 19.65                                                             
C  1.34  6.97 35.37                                                             
C  1.34  6.97 51.09                                                             
C  1.34  6.97 66.80                                                             
C  5.37  4.65  3.93                                                             
C  5.37  4.65 19.65                                                             
C  5.37  4.65 35.37                                                             
C  5.37  4.65 51.09                                                             
C  5.37  4.65 66.80                                                             
C  9.39  2.32  3.93                                                             
C  9.39  2.32 19.65                                                             
C  9.39  2.32 35.37                                                             
C  9.39  2.32 51.09                                                             
C  9.39  2.32 66.80                                                             
C 13.42  0.00  3.93                                                             
C 13.42  0.00 19.65                                                             
C 13.42  0.00 35.37                                                             
C 13.42  0.00 51.09                                                             
C 13.42  0.00 66.80                                                             
C  1.34 11.62  3.93                                                             
C  1.34 11.62 19.65                                                             
C  1.34 11.62 35.37                                                             
C  1.34 11.62 51.09                                                             
C  1.34 11.62 66.80                                                             
C  5.37  9.30  3.93                                                             
C  5.37  9.30 19.65                                                             
C  5.37  9.30 35.37                                                             
C  5.37  9.30 51.09                                                             
C  5.37  9.30 66.80                                                             
C  9.39  6.97  3.93                                                             
C  9.39  6.97 19.65                                                             
C  9.39  6.97 35.37                                                             
C  9.39  6.97 51.09                                                             
C  9.39  6.97 66.80                                                             
C 13.42  4.65  3.93                                                             
C 13.42  4.65 19.65                                                             
C 13.42  4.65 35.37                                                             
C 13.42  4.65 51.09                                                             
C 13.42  4.65 66.80                                                             
C 17.45  2.32  3.93                                                             
C 17.45  2.32 19.65                                                             
C 17.45  2.32 35.37                                                             
C 17.45  2.32 51.09                                                             
C 17.45  2.32 66.80                                                             
C 21.47  0.00  3.93                                                             
C 21.47  0.00 19.65                                                             
C 21.47  0.00 35.37                                                             
C 21.47  0.00 51.09                                                             
C 21.47  0.00 66.80                                                             
C  1.34 16.27  3.93                                                             
C  1.34 16.27 19.65                                                             
C  1.34 16.27 35.37                                                             
C  1.34 16.27 51.09                                                             
C  1.34 16.27 66.80                                                             
C  5.37 13.95  3.93                                                             
C  5.37 13.95 19.65                                                             
C  5.37 13.95 35.37                                                             
C  5.37 13.95 51.09                                                             
C  5.37 13.95 66.80                                                             
C  9.39 11.62  3.93                                                             
C  9.39 11.62 19.65                                                             
C  9.39 11.62 35.37                                                             
C  9.39 11.62 51.09                                                             
C  9.39 11.62 66.80                                                             
C 13.42  9.30  3.93                                                             
C 13.42  9.30 19.65                                                             
C 13.42  9.30 35.37                                                             
C 13.42  9.30 51.09                                                             
C 13.42  9.30 66.80                                                             
C 17.45  6.97  3.93                                                             
C 17.45  6.97 19.65                                                             
C 17.45  6.97 35.37                                                             
C 17.45  6.97 51.09                                                             
C 17.45  6.97 66.80                                                             
C 21.47  4.65  3.93                                                             
C 21.47  4.65 19.65                                                             
C 21.47  4.65 35.37                                                             
C 21.47  4.65 51.09                                                             
C 21.47  4.65 66.80                                                             
C 25.50  2.32  3.93                                                             
C 25.50  2.32 19.65                                                             
C 25.50  2.32 35.37                                                             
C 25.50  2.32 51.09                                                             
C 25.50  2.32 66.80                                                             
C 29.52  0.00  3.93                                                             
C 29.52  0.00 19.65                                                             
C 29.52  0.00 35.37                                                             
C 29.52  0.00 51.09                                                             
C 29.52  0.00 66.80                                                             
C  9.39 16.27  3.93                                                             
C  9.39 16.27 19.65                                                             
C  9.39 16.27 35.37                                                             
C  9.39 16.27 51.09                                                             
C  9.39 16.27 66.80                                                             
C 13.42 13.95  3.93                                                             
C 13.42 13.95 19.65                                                             
C 13.42 13.95 35.37                                                             
C 13.42 13.95 51.09                                                             
C 13.42 13.95 66.80                                                             
C 17.45 11.62  3.93                                                             
C 17.45 11.62 19.65                                                             
C 17.45 11.62 35.37                                                             
C 17.45 11.62 51.09                                                             
C 17.45 11.62 66.80                                                             
C 21.47  9.30  3.93                                                             
C 21.47  9.30 19.65                                                             
C 21.47  9.30 35.37                                                             
C 21.47  9.30 51.09                                                             
C 21.47  9.30 66.80                                                             
C 25.50  6.97  3.93                                                             
C 25.50  6.97 19.65                                                             
C 25.50  6.97 35.37                                                             
C 25.50  6.97 51.09                                                             
C 25.50  6.97 66.80                                                             
C 29.52  4.65  3.93                                                             
C 29.52  4.65 19.65                                                             
C 29.52  4.65 35.37                                                             
C 29.52  4.65 51.09                                                             
C 29.52  4.65 66.80                                                             
C 17.45 16.27  3.93                                                             
C 17.45 16.27 19.65                                                             
C 17.45 16.27 35.37                                                             
C 17.45 16.27 51.09                                                             
C 17.45 16.27 66.80                                                             
C 21.47 13.95  3.93                                                             
C 21.47 13.95 19.65                                                             
C 21.47 13.95 35.37                                                             
C 21.47 13.95 51.09                                                             
C 21.47 13.95 66.80                                                             
C 25.50 11.62  3.93                                                             
C 25.50 11.62 19.65                                                             
C 25.50 11.62 35.37                                                             
C 25.50 11.62 51.09                                                             
C 25.50 11.62 66.80                                                             
C 29.52  9.30  3.93                                                             
C 29.52  9.30 19.65                                                             
C 29.52  9.30 35.37                                                             
C 29.52  9.30 51.09                                                             
C 29.52  9.30 66.80                                                             
C 25.50 16.27  3.93                                                             
C 25.50 16.27 19.65                                                             
C 25.50 16.27 35.37                                                             
C 25.50 16.27 51.09                                                             
C 25.50 16.27 66.80                                                             
C 29.52 13.95  3.93                                                             
C 29.52 13.95 19.65                                                             
C 29.52 13.95 35.37                                                             
C 29.52 13.95 51.09                                                             
C 29.52 13.95 66.80                                                             
C  2.68  0.00 11.79                                                             
C  2.68  0.00 27.51                                                             
C  2.68  0.00 43.23                                                             
C  2.68  0.00 58.94                                                             
C  2.68  0.00 74.66                                                             
C  2.68  4.65 11.79                                                             
C  2.68  4.65 27.51                                                             
C  2.68  4.65 43.23                                                             
C  2.68  4.65 58.94                                                             
C  2.68  4.65 74.66                                                             
C  6.71  2.32 11.79                                                             
C  6.71  2.32 27.51                                                             
C  6.71  2.32 43.23                                                             
C  6.71  2.32 58.94                                                             
C  6.71  2.32 74.66                                                             
C 10.74  0.00 11.79                                                             
C 10.74  0.00 27.51                                                             
C 10.74  0.00 43.23                                                             
C 10.74  0.00 58.94                                                             
C 10.74  0.00 74.66                                                             
C  2.68  9.30 11.79                                                             
C  2.68  9.30 27.51                                                             
C  2.68  9.30 43.23                                                             
C  2.68  9.30 58.94                                                             
C  2.68  9.30 74.66                                                             
C  6.71  6.97 11.79                                                             
C  6.71  6.97 27.51                                                             
C  6.71  6.97 43.23                                                             
C  6.71  6.97 58.94                                                             
C  6.71  6.97 74.66                                                             
C 10.74  4.65 11.79                                                             
C 10.74  4.65 27.51                                                             
C 10.74  4.65 43.23                                                             
C 10.74  4.65 58.94                                                             
C 10.74  4.65 74.66                                                             
C 14.76  2.32 11.79                                                             
C 14.76  2.32 27.51                                                             
C 14.76  2.32 43.23                                                             
C 14.76  2.32 58.94                                                             
C 14.76  2.32 74.66                                                             
C 18.79  0.00 11.79                                                             
C 18.79  0.00 27.51                                                             
C 18.79  0.00 43.23                                                             
C 18.79  0.00 58.94                                                             
C 18.79  0.00 74.66                                                             
C  2.68 13.95 11.79                                                             
C  2.68 13.95 27.51                                                             
C  2.68 13.95 43.23                                                             
C  2.68 13.95 58.94                                                             
C  2.68 13.95 74.66                                                             
C  6.71 11.62 11.79                                                             
C  6.71 11.62 27.51                                                             
C  6.71 11.62 43.23                                                             
C  6.71 11.62 58.94                                                             
C  6.71 11.62 74.66                                                             
C 10.74  9.30 11.79                                                             
C 10.74  9.30 27.51                                                             
C 10.74  9.30 43.23                                                             
C 10.74  9.30 58.94                                                             
C 10.74  9.30 74.66                                                             
C 14.76  6.97 11.79                                                             
C 14.76  6.97 27.51                                                             
C 14.76  6.97 43.23                                                             
C 14.76  6.97 58.94                                                             
C 14.76  6.97 74.66                                                             
C 18.79  4.65 11.79                                                             
C 18.79  4.65 27.51                                                             
C 18.79  4.65 43.23                                                             
C 18.79  4.65 58.94                                                             
C 18.79  4.65 74.66                                                             
C 22.81  2.32 11.79                                                             
C 22.81  2.32 27.51                                                             
C 22.81  2.32 43.23                                                             
C 22.81  2.32 58.94                                                             
C 22.81  2.32 74.66                                                             
C 26.84  0.00 11.79                                                             
C 26.84  0.00 27.51                                                             
C 26.84  0.00 43.23                                                             
C 26.84  0.00 58.94                                                             
C 26.84  0.00 74.66                                                             
C  6.71 16.27 11.79                                                             
C  6.71 16.27 27.51                                                             
C  6.71 16.27 43.23                                                             
C  6.71 16.27 58.94                                                             
C  6.71 16.27 74.66                                                             
C 10.74 13.95 11.79                                                             
C 10.74 13.95 27.51                                                             
C 10.74 13.95 43.23                                                             
C 10.74 13.95 58.94                                                             
C 10.74 13.95 74.66                                                             
C 14.76 11.62 11.79                                                             
C 14.76 11.62 27.51                                                             
C 14.76 11.62 43.23                                                             
C 14.76 11.62 58.94                                                             
C 14.76 11.62 74.66                                                             
C 18.79  9.30 11.79                                                             
C 18.79  9.30 27.51                                                             
C 18.79  9.30 43.23                                                             
C 18.79  9.30 58.94                                                             
C 18.79  9.30 74.66                                                             
C 22.81  6.97 11.79                                                             
C 22.81  6.97 27.51                                                             
C 22.81  6.97 43.23                                                             
C 22.81  6.97 58.94                                                             
C 22.81  6.97 74.66                                                             
C 26.84  4.65 11.79                                                             
C 26.84  4.65 27.51                                                             
C 26.84  4.65 43.23                                                             
C 26.84  4.65 58.94                                                             
C 26.84  4.65 74.66                                                             
C 30.86  2.32 11.79                                                             
C 30.86  2.32 27.51                                                             
C 30.86  2.32 43.23                                                             
C 30.86  2.32 58.94                                                             
C 30.86  2.32 74.66                                                             
C 14.76 16.27 11.79                                                             
C 14.76 16.27 27.51                                                             
C 14.76 16.27 43.23                                                             
C 14.76 16.27 58.94                                                             
C 14.76 16.27 74.66                                                             
C 18.79 13.95 11.79                                                             
C 18.79 13.95 27.51                                                             
C 18.79 13.95 43.23                                                             
C 18.79 13.95 58.94                                                             
C 18.79 13.95 74.66                                                             
C 22.81 11.62 11.79                                                             
C 22.81 11.62 27.51                                                             
C 22.81 11.62 43.23                                                             
C 22.81 11.62 58.94                                                             
C 22.81 11.62 74.66                                                             
C 26.84  9.30 11.79                                                             
C 26.84  9.30 27.51                                                             
C 26.84  9.30 43.23                                                             
C 26.84  9.30 58.94                                                             
C 26.84  9.30 74.66                                                             
C 30.86  6.97 11.79                                                             
C 30.86  6.97 27.51                                                             
C 30.86  6.97 43.23                                                             
C 30.86  6.97 58.94                                                             
C 30.86  6.97 74.66                                                             
C 22.81 16.27 11.79                                                             
C 22.81 16.27 27.51                                                             
C 22.81 16.27 43.23                                                             
C 22.81 16.27 58.94                                                             
C 22.81 16.27 74.66                                                             
C 26.84 13.95 11.79                                                             
C 26.84 13.95 27.51                                                             
C 26.84 13.95 43.23                                                             
C 26.84 13.95 58.94                                                             
C 26.84 13.95 74.66                                                             
C 30.86 11.62 11.79                                                             
C 30.86 11.62 27.51                                                             
C 30.86 11.62 43.23                                                             
C 30.86 11.62 58.94                                                             
C 30.86 11.62 74.66                                                             
C 30.86 16.27 11.79                                                             
C 30.86 16.27 27.51                                                             
C 30.86 16.27 43.23                                                             
C 30.86 16.27 58.94                                                             
C 30.86 16.27 74.66                                                             
%ENDBLOCK POSITIONS_ABS                                                         

--------------------------------------------------------------------------------
-------------------------------- END INPUT FILE --------------------------------
--------------------------------------------------------------------------------


 
<<<<<<<<<<<<<<<<<<<<<<<<<<<<<<<<< Full system >>>>>>>>>>>>>>>>>>>>>>>>>>>>>>>>>>
<<<<<<<<<<<<<<<<<<<<<<<<<<< PAW Dataset information >>>>>>>>>>>>>>>>>>>>>>>>>>>
File: ~/pp/paw/c_pbe_abinit.paw; rc = 1.25 bohr; shape type =  3; rshape = 1.25 bohr;
  Atomic number:  6;  ionic charge:  4.000000
    Partial Wave 1: l = 0
    Partial Wave 2: l = 0
    Partial Wave 3: l = 1
    Partial Wave 4: l = 1
  Core charge supplied for Nonlinear Core Corrections
<<<<<<<<<<<<<<<<<<<<<<<<<<<<<<<<<<<<<<< >>>>>>>>>>>>>>>>>>>>>>>>>>>>>>>>>>>>>>>

-------------------------- Atom counting information ---------------------------
Symbol    Natoms    Nngwfs    Nprojs
  C        640      2560      5120
.......   ......    ......    ......
Totals:    640      2560      5120
--------------------------------------------------------------------------------

=============================== PSINC grid sizes ===============================
                      Simulation cell:   63 x  35 x 155
                              FFT-box:   63 x  35 x 117
                                  PPD:    7 x   5 x   1
Grid space d1=  0.511269841270a0 (KE cutoff=  29.06054Eh = 790.77748eV)
Grid space d2=  0.531142857143a0 (KE cutoff=  26.92659Eh = 732.70972eV)
Grid space d3=  0.507032258065a0 (KE cutoff=  29.54832Eh = 804.05075eV)
================================================================================
  
WARNING in cell_grid_distribute:
Average of less than one 23-slab per node, so workload cannot be
equally balanced between nodes.

********************* Fourier parallelisation information **********************
       Coarse grid (whole simulation cell) dimensions:     63    35   155
          Real-space ('12') slabs/node (min max mean):      3     4     3
         Recip-space ('23') slabs/node (min max mean):      0     1     0
********************************************************************************

********************* Fourier parallelisation information **********************
       Double grid (whole simulation cell) dimensions:    126    70   310
          Real-space ('12') slabs/node (min max mean):      7     8     7
         Recip-space ('23') slabs/node (min max mean):      1     2     1
********************************************************************************

Atom SCF Calculation for C  : Z (AE atom) =   6 : Z (PS atom) =   4
Config String: 2s2 2p2
Orbitals (num,occ):  2     2.00 2.00
Orbitals   (num,l):  2        0    1
Real-space Grid (nr,dr,rmax): 1293    0.0069659443    9.0000000000
Spherical Bessel Basis (nsws,lmax,cutoff):   37    2  161.4736382572
Confining potential (l,width,scale):  0    3.0000000000  100.0000000000
Confining potential (l,width,scale):  1    3.0000000000  100.0000000000
  1         -5.4283124456   -1.2935102156    4.5135257941   -1.5923561795
  2         -5.4241534249   -1.3636937911    4.4427183619   -1.5694122055
  3         -5.4326289545   -1.3865748334    4.4195613881   -1.5634604620
  4         -5.4368073263   -1.3933479911    4.4127833993   -1.5619680687
  5         -5.4388652800   -1.3969668505    4.4091714945   -1.5612108736
  6         -5.4399077146   -1.3988848872    4.4072644158   -1.5608235486
  7         -5.4404434041   -1.3998980658    4.4062615348   -1.5606243010
  8         -5.4407208401   -1.4004325328    4.4057350952   -1.5605214507
  9         -5.4408651553   -1.4007143559    4.4054589454   -1.5604682523
 10         -5.4409404127   -1.4008629743    4.4053141024   -1.5604407028
 11         -5.4409797152   -1.4009413770    4.4052381126   -1.5604264250
 12         -5.4410002582   -1.4009827603    4.4051982277   -1.5604190215
 13         -5.4410110012   -1.4010046176    4.4051772812   -1.5604151811
 14         -5.4410166211   -1.4010161701    4.4051662735   -1.5604131883
 15         -5.4410195614   -1.4010222805    4.4051604845   -1.5604121539
 16         -5.4410211001   -1.4010255150    4.4051574379   -1.5604116169
 17         -5.4410219052   -1.4010272285    4.4051558332   -1.5604113379
 18         -5.4410223266   -1.4010281369    4.4051549874   -1.5604111930
 19         -5.4410225472   -1.4010286190    4.4051545411   -1.5604111177
 20         -5.4410226626   -1.4010288749    4.4051543055   -1.5604110786
 21         -5.4410227231   -1.4010290110    4.4051541810   -1.5604110582
Atom SCF converged after  21 iterations to a total energy of     -5.44102272

Determining parallel strategy ...
... using space-filling curve
... NGWF load balancing: max     64;  min     64;  average     64
... Projector load balancing: max    128;  min    128;  average    128
... done
Calculating Ewald energy ...
              Ewald: real-space energy =    9527.449880
        Ewald: reciprocal-space energy =       1.255458
         Ewald: (sum_charge)**2 Energy =   10531.998999
         Ewald: (sum_charge**2) Energy =     832.627629
                          Ewald Energy =   -1835.921291
Basis initialisation ...... NGWF spheres initialised
... Projector spheres initialised
... NGWF tight boxes initialised
... Projector tight boxes initialised
... Tight-boxes gathered
... NGWF basis size (local,global):     692340  27886592
... PAW projector initialisation
... done

============================= Charge Augmentation ==============================
                           Aug box size:   11 x  11 x  11
================================================================================

========================== Sparse matrix information ===========================
                        Overlap matrix filling:  35.78%
                        Density kernel filling: 100.00%
              NGWF-Proj overlap matrix filling:   9.38%
                    Aug Overlap matrix filling:  39.69%
                    Hamiltonian matrix filling:  39.69%
                  NGWF diagonal matrix filling:   0.16%
                             KS matrix filling: 100.00% 
                           KSKS matrix filling: 100.00% 
================================================================================

Sparse matrix initialisation ... done
NGWF initialisation ...... done
============ Calculation of NGWF S^-1 using Hotelling algorithm ================ 
         Iteration  |  Frobenius norm and Maximum abs value    (of I-S*S_n^-1)   
               1       0.48821568E+02     0.97280541E+00
               2       0.47442281E+02     0.94754937E+00
               3       0.45432889E+02     0.90204924E+00
               4       0.42900061E+02     0.82680820E+00
               5       0.39911966E+02     0.71970691E+00
               6       0.36525586E+02     0.66657713E+00
               7       0.33109873E+02     0.62147821E+00
               8       0.29827046E+02     0.58276220E+00
               9       0.26147386E+02     0.53571496E+00
              10       0.21392238E+02     0.45940190E+00
              11       0.15268362E+02     0.34130915E+00
              12       0.85223543E+01     0.19396811E+00
              13       0.30779183E+01     0.67700639E-01
              14       0.48008290E+00     0.96119306E-02
              15       0.13841629E-01     0.23899041E-03
              16       0.15066767E-04     0.19115176E-06
              17       0.27368608E-10     0.20872193E-12
================================================================================
Calculating core density ...
================================= Core Density =================================
               Core den box size:   21 x  21 x  21
================================================================================
 ... done
Up spin density kernel initialisation ...... done

Writing density kernel to file "4.158936_GO_manual_4x64graphite.dkn" ... done

>>> Optimising kernel for current NGWFs:

--------------------------- Ensemble-DFT optimisation --------------------------
Running ScaLAPACK on   40 processor(s).

--------------------------------------------------------------------------------
  Iter                              Commutator    Free_energy(A=E-TS)     DeltaA
#    0                          0.000030702117   -3648.22696417929319  -3.65E+03

Step                       =       0.381966011250
Energy                     =   -3648.226937706431
Entropy (-TS)              =      -0.000026473125
Free energy (A=E-TS)       =   -3648.226964179293
Est. 0K Energy 0.5*(E+A)   =   -3648.226950942862
Residual Non-orthogonality =       0.000000000000
Residual N_electrons       =       0.000000000262

Spin          Integrated_Ne            Fermi_level     Delta_Fermi_level
   1      2559.999999997773         0.117863104417              1.18E-01

                           Spin 1          
     Orb      H-eigenvalues     Occupancies
       1 |    -0.6023297023    1.0000000000 | 
                          ------
    1276 |     0.0815625743    0.9999894861 | 
    1277 |     0.0818496375    0.9999884885 | 
    1278 |     0.0821859946    0.9999871986 | 
    1279 |     0.0821886014    0.9999871880 | 
    1280 |     0.0824772232    0.9999859655 | 
                 - Gap at zero temperature -
    1281 |     0.1545238098    0.0000093836 | 
    1282 |     0.1545255430    0.0000093785 | 
    1283 |     0.1545303983    0.0000093641 | 
    1284 |     0.1545324920    0.0000093579 | 
    1285 |     0.1545406004    0.0000093340 | 
                          ------
    2560 |     0.9501759418    0.0000000000 | 

                       |  Abs_value |  Threshold | Converged
     Delta_Free_energy |   3.65E+03 |   1.00E-06 |        No
     Delta_Energy      |   3.65E+03 |   1.00E-04 |        No
     Delta_Entropy     |   2.65E-05 |   1.00E-04 |       Yes
     Commutator        |   3.07E-05 |   1.00E-05 |        No
     Delta_Fermi_level |   1.18E-01 |   1.00E-03 |        No

  Line search of the free energy minimum:
  Step_type        Step             Free_energy   Predicted_free_energy
.   Initial    0.000000    -3648.22696417929319
.    Trial1    0.381966    -3648.22805088350333
.    Trial2    0.618034    -3648.22825095049029
. Quadratic    0.631107    -3648.22825150237441    -3648.22825150289555

--------------------------------------------------------------------------------
  Iter                              Commutator    Free_energy(A=E-TS)     DeltaA
#    1                          0.000017252342   -3648.22825150237441  -1.29E-03

Step                       =       0.631107381859
Energy                     =   -3648.228224213459
Entropy (-TS)              =      -0.000027288973
Free energy (A=E-TS)       =   -3648.228251502374
Est. 0K Energy 0.5*(E+A)   =   -3648.228237857917
Residual Non-orthogonality =       0.000000000000
Residual N_electrons       =       0.000000000058

Spin          Integrated_Ne            Fermi_level     Delta_Fermi_level
   1      2559.999999999489         0.113392862640             -4.47E-03

                           Spin 1          
     Orb      H-eigenvalues     Occupancies
       1 |    -0.6087828528    1.0000000000 | 
                          ------
    1276 |     0.0772065611    0.9999890999 | 
    1277 |     0.0774706244    0.9999881521 | 
    1278 |     0.0776701328    0.9999873817 | 
    1279 |     0.0776719852    0.9999873743 | 
    1280 |     0.0779373103    0.9999862709 | 
                 - Gap at zero temperature -
    1281 |     0.1498737937    0.0000099317 | 
    1282 |     0.1498868181    0.0000098910 | 
    1283 |     0.1498894958    0.0000098826 | 
    1284 |     0.1498909589    0.0000098780 | 
    1285 |     0.1498961670    0.0000098618 | 
                          ------
    2560 |     0.9428682447    0.0000000000 | 

                       |  Abs_value |  Threshold | Converged
     Delta_Free_energy |   1.29E-03 |   1.00E-06 |        No
     Delta_Energy      |   1.29E-03 |   1.00E-04 |        No
     Delta_Entropy     |   8.16E-07 |   1.00E-04 |       Yes
     Commutator        |   1.73E-05 |   1.00E-05 |        No
     Delta_Fermi_level |   4.47E-03 |   1.00E-03 |        No

  Line search of the free energy minimum:
  Step_type        Step             Free_energy   Predicted_free_energy
.   Initial    0.000000    -3648.22825150237441
.    Trial1    0.631107    -3648.22795479904744
.    Trial2    0.241062    -3648.22854388591668
. Quadratic    0.261077    -3648.22854562254133    -3648.22854561452277

--------------------------------------------------------------------------------
  Iter                              Commutator    Free_energy(A=E-TS)     DeltaA
#    2                          0.000008496038   -3648.22854562254133  -2.94E-04

Step                       =       0.261076760607
Energy                     =   -3648.228518211640
Entropy (-TS)              =      -0.000027411136
Free energy (A=E-TS)       =   -3648.228545622541
Est. 0K Energy 0.5*(E+A)   =   -3648.228531917091
Residual Non-orthogonality =       0.000000000000
Residual N_electrons       =       0.000000000235

Spin          Integrated_Ne            Fermi_level     Delta_Fermi_level
   1      2559.999999997915         0.112718182245             -6.75E-04

                           Spin 1          
     Orb      H-eigenvalues     Occupancies
       1 |    -0.6097655473    1.0000000000 | 
                          ------
    1276 |     0.0765046002    0.9999891934 | 
    1277 |     0.0767649967    0.9999882673 | 
    1278 |     0.0770255155    0.9999872613 | 
    1279 |     0.0770274486    0.9999872535 | 
    1280 |     0.0772892053    0.9999861552 | 
                 - Gap at zero temperature -
    1281 |     0.1492103273    0.0000098966 | 
    1282 |     0.1492238550    0.0000098544 | 
    1283 |     0.1492261588    0.0000098473 | 
    1284 |     0.1492277024    0.0000098425 | 
    1285 |     0.1492324661    0.0000098277 | 
                          ------
    2560 |     0.9417534306    0.0000000000 | 

                       |  Abs_value |  Threshold | Converged
     Delta_Free_energy |   2.94E-04 |   1.00E-06 |        No
     Delta_Energy      |   2.94E-04 |   1.00E-04 |        No
     Delta_Entropy     |   1.22E-07 |   1.00E-04 |       Yes
     Commutator        |   8.50E-06 |   1.00E-05 |       Yes
     Delta_Fermi_level |   6.75E-04 |   1.00E-03 |       Yes

  Line search of the free energy minimum:
  Step_type        Step             Free_energy   Predicted_free_energy
.   Initial    0.000000    -3648.22854562254133
.    Trial1    0.261077    -3648.22861210780684
.    Trial2    0.543320    -3648.22862091922343
. Quadratic    0.440155    -3648.22862529738359    -3648.22862529613121

--------------------------------------------------------------------------------
  Iter                              Commutator    Free_energy(A=E-TS)     DeltaA
#    3                          0.000005605220   -3648.22862529738359  -7.97E-05

Step                       =       0.440155306961
Energy                     =   -3648.228597740275
Entropy (-TS)              =      -0.000027557172
Free energy (A=E-TS)       =   -3648.228625297384
Est. 0K Energy 0.5*(E+A)   =   -3648.228611518829
Residual Non-orthogonality =       0.000000000000
Residual N_electrons       =       0.000000000064

Spin          Integrated_Ne            Fermi_level     Delta_Fermi_level
   1      2559.999999999429         0.111875753109             -8.42E-04

                           Spin 1          
     Orb      H-eigenvalues     Occupancies
       1 |    -0.6109796180    1.0000000000 | 
                          ------
    1276 |     0.0756526579    0.9999892258 | 
    1277 |     0.0759085187    0.9999883192 | 
    1278 |     0.0761976340    0.9999872026 | 
    1279 |     0.0761996709    0.9999871944 | 
    1280 |     0.0764569338    0.9999861107 | 
                 - Gap at zero temperature -
    1281 |     0.1483612571    0.0000099174 | 
    1282 |     0.1483753818    0.0000098732 | 
    1283 |     0.1483772092    0.0000098676 | 
    1284 |     0.1483790237    0.0000098619 | 
    1285 |     0.1483832026    0.0000098489 | 
                          ------
    2560 |     0.9403865066    0.0000000000 | 

                       |  Abs_value |  Threshold | Converged
     Delta_Free_energy |   7.97E-05 |   1.00E-06 |        No
     Delta_Energy      |   7.95E-05 |   1.00E-04 |       Yes
     Delta_Entropy     |   1.46E-07 |   1.00E-04 |       Yes
     Commutator        |   5.61E-06 |   1.00E-05 |       Yes
     Delta_Fermi_level |   8.42E-04 |   1.00E-03 |       Yes

  Line search of the free energy minimum:
  Step_type        Step             Free_energy   Predicted_free_energy
.   Initial    0.000000    -3648.22862529738359
.    Trial1    0.440155    -3648.22864494015585
.    Trial2    0.653997    -3648.22859841894842
. Quadratic    0.275738    -3648.22865577434141    -3648.22865577722223

--------------------------------------------------------------------------------
  Iter                              Commutator    Free_energy(A=E-TS)     DeltaA
#    4                          0.000003358535   -3648.22865577434141  -3.05E-05

Step                       =       0.275738326123
Energy                     =   -3648.228628167338
Entropy (-TS)              =      -0.000027606873
Free energy (A=E-TS)       =   -3648.228655774341
Est. 0K Energy 0.5*(E+A)   =   -3648.228641970840
[...]
 C   160 -- C   385       -0.10      5.37000
 C   159 -- C   384       -0.10      5.37000
 C   158 -- C   383       -0.10      5.37000
 C   157 -- C   382       -0.10      5.37000
 C   156 -- C   381       -0.10      5.37000
 C   155 -- C   355       -0.10      5.37000
 C   154 -- C   354       -0.10      5.37000
 C   153 -- C   353       -0.10      5.37000
 C   152 -- C   352       -0.10      5.37000
 C   151 -- C   351       -0.10      5.37000
 C   140 -- C   335       -0.10      5.37000
 C   139 -- C   334       -0.10      5.37000
 C   138 -- C   333       -0.10      5.37000
 C   137 -- C   332       -0.10      5.37000
 C   136 -- C   331       -0.10      5.37000
 C   115 -- C   325       -0.10      5.37000
 C   114 -- C   324       -0.10      5.37000
 C   113 -- C   323       -0.10      5.37000
 C   112 -- C   322       -0.10      5.37000
 C   111 -- C   321       -0.10      5.37000
 C   219 -- C   569       -0.09      5.37202
 C   218 -- C   568       -0.09      5.37202
 C   217 -- C   567       -0.09      5.37202
 C   216 -- C   566       -0.09      5.37202
 C   250 -- C   540       -0.09      5.37202
 C   249 -- C   539       -0.09      5.37202
 C   248 -- C   538       -0.09      5.37202
 C   247 -- C   537       -0.09      5.37202
 C   246 -- C   536       -0.09      5.37202
 C   220 -- C   570       -0.09      5.37202
 C   285 -- C   580       -0.09      5.37202
 C   284 -- C   579       -0.09      5.37202
 C   283 -- C   578       -0.09      5.37202
 C   282 -- C   577       -0.09      5.37202
 C   281 -- C   576       -0.09      5.37202
 C   260 -- C   605       -0.09      5.37202
 C   259 -- C   604       -0.09      5.37202
 C   258 -- C   603       -0.09      5.37202
 C   257 -- C   602       -0.09      5.37202
 C   256 -- C   601       -0.09      5.37202
 C   220 -- C   515       -0.09      5.37202
 C   219 -- C   514       -0.09      5.37202
 C   218 -- C   513       -0.09      5.37202
 C   217 -- C   512       -0.09      5.37202
 C   216 -- C   511       -0.09      5.37202
 C   195 -- C   540       -0.09      5.37202
 C   195 -- C   500       -0.09      5.37202
 C   194 -- C   539       -0.09      5.37202
 C   194 -- C   499       -0.09      5.37202
 C   193 -- C   538       -0.09      5.37202
 C   193 -- C   498       -0.09      5.37202
 C   192 -- C   537       -0.09      5.37202
 C   192 -- C   497       -0.09      5.37202
 C   191 -- C   536       -0.09      5.37202
 C   191 -- C   496       -0.09      5.37202
 C   180 -- C   515       -0.09      5.37202
 C   179 -- C   514       -0.09      5.37202
 C   178 -- C   513       -0.09      5.37202
 C   177 -- C   512       -0.09      5.37202
 C   176 -- C   511       -0.09      5.37202
 C    11 -- C   331       -0.10      5.37202
 C   205 -- C   550       -0.10      5.37202
 C   204 -- C   549       -0.10      5.37202
 C   203 -- C   548       -0.10      5.37202
 C   202 -- C   547       -0.10      5.37202
 C   201 -- C   546       -0.10      5.37202
 C    95 -- C   425       -0.09      5.37202
 C    95 -- C   365       -0.10      5.37202
 C    94 -- C   424       -0.09      5.37202
 C    94 -- C   364       -0.10      5.37202
 C    93 -- C   423       -0.09      5.37202
 C    93 -- C   363       -0.10      5.37202
 C    92 -- C   422       -0.09      5.37202
 C    92 -- C   362       -0.10      5.37202
 C    91 -- C   421       -0.09      5.37202
 C    91 -- C   361       -0.10      5.37202
 C    40 -- C   365       -0.09      5.37202
 C    39 -- C   364       -0.09      5.37202
 C    38 -- C   363       -0.09      5.37202
 C    37 -- C   362       -0.09      5.37202
 C    36 -- C   361       -0.09      5.37202
 C    15 -- C   335       -0.10      5.37202
 C    65 -- C   395       -0.10      5.37202
 C    65 -- C   345       -0.09      5.37202
 C    64 -- C   394       -0.10      5.37202
 C    64 -- C   344       -0.09      5.37202
 C    63 -- C   393       -0.10      5.37202
 C    30 -- C   355       -0.10      5.37202
 C    63 -- C   343       -0.09      5.37202
 C    62 -- C   392       -0.10      5.37202
 C    30 -- C   325       -0.10      5.37202
 C    14 -- C   334       -0.10      5.37202
 C    62 -- C   342       -0.09      5.37202
 C    61 -- C   391       -0.10      5.37202
 C    29 -- C   354       -0.10      5.37202
 C    61 -- C   341       -0.09      5.37202
 C    29 -- C   324       -0.10      5.37202
 C   260 -- C   550       -0.09      5.37202
 C   259 -- C   549       -0.09      5.37202
 C    28 -- C   353       -0.10      5.37202
 C   258 -- C   548       -0.09      5.37202
 C   257 -- C   547       -0.09      5.37202
 C   256 -- C   546       -0.09      5.37202
 C    28 -- C   323       -0.10      5.37202
 C    27 -- C   352       -0.10      5.37202
 C    13 -- C   333       -0.10      5.37202
 C    27 -- C   322       -0.10      5.37202
 C   120 -- C   395       -0.09      5.37202
 C    26 -- C   351       -0.10      5.37202
 C   119 -- C   394       -0.09      5.37202
 C   118 -- C   393       -0.09      5.37202
 C    55 -- C   335       -0.10      5.37202
 C   117 -- C   392       -0.09      5.37202
 C    26 -- C   321       -0.10      5.37202
 C   116 -- C   391       -0.09      5.37202
 C    54 -- C   334       -0.10      5.37202
 C    12 -- C   332       -0.10      5.37202
 C    53 -- C   333       -0.10      5.37202
 C   230 -- C   580       -0.09      5.37202
 C   230 -- C   525       -0.09      5.37202
 C   229 -- C   579       -0.09      5.37202
 C   229 -- C   524       -0.09      5.37202
 C   228 -- C   578       -0.09      5.37202
 C    52 -- C   332       -0.10      5.37202
 C   228 -- C   523       -0.09      5.37202
 C   227 -- C   577       -0.09      5.37202
 C   227 -- C   522       -0.09      5.37202
 C   226 -- C   576       -0.09      5.37202
 C   226 -- C   521       -0.09      5.37202
 C    51 -- C   331       -0.10      5.37202
 C    23 -- C   478       -0.09      5.37202
 C    49 -- C   469       -0.09      5.37202
 C    48 -- C   468       -0.09      5.37202
 C    47 -- C   467       -0.09      5.37202
 C    22 -- C   477       -0.09      5.37202
 C    46 -- C   466       -0.09      5.37202
 C    21 -- C   476       -0.09      5.37202
 C    85 -- C   355       -0.09      5.37202
 C    84 -- C   354       -0.09      5.37202
 C    83 -- C   353       -0.09      5.37202
 C    82 -- C   352       -0.09      5.37202
 C    81 -- C   351       -0.09      5.37202
 C    55 -- C   385       -0.09      5.37202
 C    54 -- C   384       -0.09      5.37202
 C    25 -- C   480       -0.09      5.37202
 C    53 -- C   383       -0.09      5.37202
 C    52 -- C   382       -0.09      5.37202
 C    51 -- C   381       -0.09      5.37202
 C    24 -- C   479       -0.09      5.37202
 C    50 -- C   470       -0.09      5.37202
 C    24 -- C   449       -0.09      5.37202
 C     6 -- C   416       -0.09      5.37202
 C    23 -- C   448       -0.09      5.37202
 C    22 -- C   447       -0.09      5.37202
 C    10 -- C   470       -0.09      5.37202
 C     5 -- C   450       -0.09      5.37202
 C    21 -- C   446       -0.09      5.37202
 C    10 -- C   420       -0.09      5.37202
 C     9 -- C   469       -0.09      5.37202
 C     9 -- C   419       -0.09      5.37202
 C     8 -- C   468       -0.09      5.37202
 C     4 -- C   449       -0.09      5.37202
 C   150 -- C   440       -0.09      5.37202
 C   149 -- C   439       -0.09      5.37202
 C   148 -- C   438       -0.09      5.37202
 C   147 -- C   437       -0.09      5.37202
 C     8 -- C   418       -0.09      5.37202
 C   146 -- C   436       -0.09      5.37202
 C     2 -- C   447       -0.09      5.37202
 C   135 -- C   460       -0.09      5.37202
 C     7 -- C   467       -0.09      5.37202
 C   134 -- C   459       -0.09      5.37202
 C   133 -- C   458       -0.09      5.37202
 C   132 -- C   457       -0.09      5.37202
 C   131 -- C   456       -0.09      5.37202
 C     7 -- C   417       -0.09      5.37202
 C     1 -- C   446       -0.09      5.37202
 C     6 -- C   466       -0.09      5.37202
 C    25 -- C   450       -0.09      5.37202
 C     3 -- C   448       -0.09      5.37202
 C   106 -- C   436       -0.09      5.37202
 C   106 -- C   376       -0.09      5.37202
 C    80 -- C   410       -0.09      5.37202
 C    79 -- C   409       -0.09      5.37202
 C    78 -- C   408       -0.09      5.37202
 C    77 -- C   407       -0.09      5.37202
 C    76 -- C   406       -0.09      5.37202
 C   135 -- C   410       -0.09      5.37202
 C   134 -- C   409       -0.09      5.37202
 C   133 -- C   408       -0.09      5.37202
 C   132 -- C   407       -0.09      5.37202
 C   131 -- C   406       -0.09      5.37202
 C   110 -- C   440       -0.09      5.37202
 C   110 -- C   380       -0.09      5.37202
 C   109 -- C   439       -0.09      5.37202
 C   109 -- C   379       -0.09      5.37202
 C   108 -- C   438       -0.09      5.37202
 C   108 -- C   378       -0.09      5.37202
 C   107 -- C   437       -0.09      5.37202
 C   107 -- C   377       -0.09      5.37202
 C   215 -- C   635       -0.10      5.38000
 C   214 -- C   634       -0.10      5.38000
 C   213 -- C   633       -0.10      5.38000
 C   212 -- C   632       -0.10      5.38000
 C   211 -- C   631       -0.10      5.38000
 C   190 -- C   620       -0.10      5.38000
 C   189 -- C   619       -0.10      5.38000
 C   188 -- C   618       -0.10      5.38000
 C   187 -- C   617       -0.10      5.38000
 C   186 -- C   616       -0.10      5.38000
 C   175 -- C   595       -0.10      5.38000
 C   174 -- C   594       -0.10      5.38000
 C   173 -- C   593       -0.10      5.38000
 C   172 -- C   592       -0.10      5.38000
 C   171 -- C   591       -0.10      5.38000
 C   245 -- C   640       -0.10      5.38000
 C   244 -- C   639       -0.10      5.38000
 C   243 -- C   638       -0.10      5.38000
 C   242 -- C   637       -0.10      5.38000
 C   241 -- C   636       -0.10      5.38000
==================================================


=================== Orbital energy and occupancy information ===================

      Total number of orbitals:    2560
        Occupancy sum (kernel):    1280.000000000
   Occupancy sum (eigenvalues):    1280.000000000
                 HOMO-LUMO gap:       0.069089444 Eh
                 Mid-gap level:       0.179105882 Eh

                        Orbital | Energy (Eh) | Occupancy
                            1    -0.538422871   1.0000000
                        .......   ...........   .........
                         1271     0.141993455   0.9999886
                         1272     0.141999088   0.9999886
                         1273     0.142463594   0.9999868
                         1274     0.142469232   0.9999868
                         1275     0.143530992   0.9999815
                         1276     0.143534444   0.9999815
                         1277     0.144002541   0.9999786
                         1278     0.144005994   0.9999786
                         1279     0.144089481   0.9999780
                         1280     0.144561160   0.9999745
                        ....... -- gap at 0K -- .........
                         1281     0.213650604   0.0000130
                         1282     0.213659236   0.0000130
                         1283     0.213845035   0.0000123
                         1284     0.213847708   0.0000122
                         1285     0.213897068   0.0000120
                         1286     0.213905769   0.0000120
                         1287     0.213961082   0.0000118
                         1288     0.214094287   0.0000113
                         1289     0.214096957   0.0000113
                         1290     0.214111544   0.0000112
                        .......   ...........   .........
                         2560     1.071249850   0.0000000

================================================================================

===================== Writing canonical molecular orbitals =====================
| Orbital  Energy (eV)  Norm     |
| HOMO      3.93370931  1.000000 | Writing "4.158936_GO_manual_4x64graphite_HOMO.cube" ... done
Writing "4.158936_GO_manual_4x64graphite_HOMO.dx" ... done
| LUMO      5.81372875  1.000000 | Writing "4.158936_GO_manual_4x64graphite_LUMO.cube" ... done
Writing "4.158936_GO_manual_4x64graphite_LUMO.dx" ... done
================================================================================
 
===================== Density of States (DOS) calculation ======================
Writing "4.158936_GO_manual_4x64graphite_DOS.txt" ...  done
================================================================================
 
Writing bands to file "4.158936_GO_manual_4x64graphite.val_bands" ... done
 
================ Projected Density of States (pDOS) calculation ================
 
Constructing AM resolved functions  ...... done
Writing NGWF plot files in formats: CUBE DX ...  done
 
Performing overlap integrals ...  done
 
Computing pDOS weights ...  done
 
All bands spilling parameter =   2.83 %
Occupancy-weighted spilling parameter =   0.97 %
 
 => Outputting data for OptaDOS <=
 
Writing pDOS weights to file "4.158936_GO_manual_4x64graphite.val_pdos_bin" ... done
 
Writing band gradients to file "4.158936_GO_manual_4x64graphite.val_dome_bin" ... done
 
Writing Castep output cell file to "4.158936_GO_manual_4x64graphite-out.cell" ... done
 
 => Computing Gaussian smeared pDOS <= 
Writing "4.158936_GO_manual_4x64graphite_PDOS.txt" ...  done
 
 => Computing Occupancy-weighted Gaussian smeared pDOS <= 
Writing "4.158936_GO_manual_4x64graphite_occ_PDOS.txt" ...  done
  => Band centres: 
 S band centre of group 1:  -13.718783 eV
 P band centre of group 1:   -6.592498 eV
  Band centres done. <=
  => Integrated number of electrons in each AM band: 
 S num electrons of group 1:  574.027048
 P num electrons of group 1: 1961.213372
  Integrated number of electrons done. <=
================================================================================

------------------------------ TIMING INFORMATION ------------------------------
AVERAGE TIME:    2791.546s on     40 node(s)                                    
TOTAL TIME:      2791.547s on     40 node(s)                                    
================= AVERAGE TIMINGS FROM ALL NODES (CUMULATIVE) ==================
|| TAG                                    #calls    cpu time   %total  Gflops ||
|| work_imbalance                       :     1        0.00s   0.000%  ------ ||
|| paw_tcore_hartree_on_grid            :     1        0.01s   0.000%  ------ ||
|| paw_tcore_density                    :     1        0.01s   0.000%  ------ ||
|| paw_sphere_density_on_grid           :     1        0.01s   0.001%  ------ ||
|| sparse_set_to_garbage                :   135        0.02s   0.001%  ------ ||
|| paw_dij_hartree                      :   276        0.04s   0.001%  ------ ||
|| pseudo_make_structure_factor         :     1        0.06s   0.002%  ------ ||
|| basis_extract_function_from_box      :  1536        0.07s   0.002%  ------ ||
|| paw_species_calc_proj_prec_mat       :     1        0.12s   0.004%  ------ ||
|| density_init_guess_real              :     1        0.17s   0.006%  ------ ||
|| paw_dataset_init                     :     1        0.20s   0.007%  ------ ||
|| ngwfs_initialise_from_radial         :     2        0.67s   0.024%  ------ ||
|| restart_kernel_write                 :    13        0.71s   0.025%  ------ ||
|| sparse_init                          :     1        0.88s   0.031%  ------ ||
|| dense_normal_eigensolve              :     1        1.01s   0.036%  ------ ||
|| hartree_on_grid                      :   208        1.38s   0.050%  ------ ||
|| projectors_init_fftbox_recip         :   121        2.39s   0.085%  ------ ||
|| fourier_apply_box_pair               :  2272        3.76s   0.135% 559.840 ||
|| ewald_calculate_energy               :     1        3.88s   0.139%  ------ ||
|| basis_copy_function_to_box           : 19776        4.22s   0.151%  ------ ||
|| augmentation_screen_dij              :   213        4.71s   0.169%  ------ ||
|| sparse_embed_hotelling_invert_embed  :    23        6.57s   0.235%  ------ ||
|| sw_init                              :     1        6.74s   0.241%  ------ ||
|| ngwf_gradient_coeffs                 :    12        8.37s   0.300%  ------ ||
|| sparse_trace                         :  2498       10.37s   0.372%  ------ ||
|| cell_grid_extract_box_real           :  8348       15.88s   0.569%  ------ ||
|| fourier_apply_cell_backward          :  6419       16.12s   0.578%  58.806 ||
|| cell_grid_deposit_box_real           : 26800       16.86s   0.604%  ------ ||
|| fourier_apply_cell_forward           :  6004       17.37s   0.622%  51.051 ||
|| paw_dij_xc                           :   276       19.86s   0.712%  ------ ||
|| aug_nonlocal_mat                     :   264       27.48s   0.984%  ------ ||
|| density_fftbox_deposit_to_cell       : 13312       33.80s   1.211%  ------ ||
|| augmentation_density_on_grid         :   208       38.59s   1.382%  ------ ||
|| function_ops_brappd_ketppd           :    48       39.26s   1.406%  ------ ||
|| projectors_func_ovlp_box             :    24       42.28s   1.515%  ------ ||
|| hamiltonian_energy_components        :     3       43.09s   1.544%  ------ ||
|| eigenstates_pdos                     :     1       53.52s   1.917%  ------ ||
|| eigenstates_calculate                :     1       58.04s   2.079%  ------ ||
|| integrals_kinetic                    :    23       66.20s   2.371%  ------ ||
|| xc_energy_potential                  :   207       70.55s   2.527%  ------ ||
|| nlxc_vdw_energy                      :   414       76.87s   2.754%  ------ ||
|| dense_eigensolve                     :   181       86.63s   3.103%  ------ ||
|| potential_apply_to_ngwf_batch        :   260      100.83s   3.612%  ------ ||
|| sparse_product                       :  2537      104.75s   3.752%  ------ ||
|| properties_calculate                 :     1      107.53s   3.852%  ------ ||
|| restart_ngwfs_tightbox_output        :    11      137.79s   4.936%  ------ ||
|| basis_dot_function_with_box          : 5.223M     142.84s   5.117%  ------ ||
|| projectors_gradient_batch            :    48      164.21s   5.882%  ------ ||
|| integrals_locpot_mat_els_batch       :   260      191.15s   6.848%  ------ ||
|| fourier_apply_box                    : 62400      193.90s   6.946% 976.577 ||
|| edft_diag_ngwf_ham                   :   180      196.99s   7.057%  ------ ||
|| projectors_grad_precond_batch        :    48      241.66s   8.657%  ------ ||
|| density_fftbox_interpolate_multiply  : 13312      257.94s   9.240%  ------ ||
|| integrals_locpot_dbl_grid            :    65      293.01s  10.496%  ------ ||
|| density_batch_interp_deposit         :   832      322.51s  11.553%  ------ ||
|| edft_apply_smearing_operator         :   180      385.56s  13.812%  ------ ||
|| basis_add_function_to_box            : 15.01M     395.31s  14.161%  ------ ||
|| ngwf_gradient_build_batch            :    48      442.26s  15.843%  ------ ||
|| density_batch_row_sums               :   832      544.83s  19.517%  ------ ||
|| ngwf_gradient_batch                  :    48      598.13s  21.426%  ------ ||
|| ngwf_gradient_lnv                    :    12      617.14s  22.108%  ------ ||
|| density_on_dbl_grid                  :   208      878.36s  31.465%  ------ ||
|| hamiltonian_lhxc_calculate           :   203      971.96s  34.818%  ------ ||
|| edft_calculate                       :    12     1639.34s  58.725%  ------ ||
|| ngwf_cg_optimise                     :     1     2664.59s  95.452%  ------ ||
|| total_time                           :     1     2791.55s 100.000%  ------ ||
================================================================================
Overhead of generating timer report: 
- 0 ms averaging over threads,
- 6 ms ensuring consistency across MPI ranks,
- 0 ms printing in order.

Job completed: 05-03-2020 19:52 (-0000)

