 +---------------------------------------------------------------+
 |                                                               |
 |        ####### #     # ####### ####### ####### ######         |
 |        #     # ##    # #          #    #       #     #        |
 |        #     # # #   # #          #    #       #     #        |
 |        #     # #  #  # #####      #    #####   ######         |
 |        #     # #   # # #          #    #       #              |
 |        #     # #    ## #          #    #       #              |
 |        ####### #     # #######    #    ####### #              |
 |                                                               |
 |        Linear-Scaling Ab Initio Total Energy Program          |
 |                                                               |
 |          Release for academic collaborators of ODG            |
 |                                             Version 5.3.2.12  |
 |                                                               |
 +---------------------------------------------------------------+
 |                                                               |
 |  Authors:                                                     |
 |  Jacek Dziedzic, Peter D. Haynes, Nicholas D. M. Hine,        |
 |  Arash. A. Mostofi, Mike C. Payne and Chris-Kriton Skylaris   |
 |                                                               |
 |  Contributors:                                                |
 |  J. Aarons, L. Andrinopoulos, P. W. Avraam, R. A. Bell,       |
 |  A. Bhandari, G. A. Bramley, R. J. Charlton, S. J. Clark,     |
 |  R. J. Clements, G. C. Constantinescu, F. Corsetti,           |
 |  N. Corsini, O. Dieguez, S. M. M. Dubois, K. K. B. Duff,      |
 |  J. M. Escartin, A. Greco, H. Helal, Q. O. Hill, L. P. Lee,   |
 |  J.-H. Li, E. B. Linscott, G. Moynihan, D. D. O`Regan,        |
 |  O. K. Okan, M. J. S. Phipps, C. J. Pickard,                  |
 |  J. C. A. Prentice, M. I. J. Probert, L. E. Ratcliff,         |
 |  M. Robinson, A. Ruiz Serrano, J. S. Spencer, E. W. Tait,     |
 |  G. Teobaldi, D. Turban, V. Vitale, K. A. Wilkinson,          |
 |  C. Weber, J. C. Womack, N. Yeung and T. J. Zuehlsdorff       |
 |                                                               |
 |                                   Copyright (c) 2004-2020     |
 |                                                               |
 |  Please cite:                                                 |
 |  "Introducing ONETEP: Linear-scaling density functional       |
 |   simulations on parallel computers".                         |
 |   C.-K. Skylaris, P. D. Haynes, A. A. Mostofi, M. C. Payne.   |
 |   J. Chem. Phys. 122 084119 (2005).                           |
 |                                                               |
 |          in all publications arising from your use of ONETEP. |
 |                                                               |
 +---------------------------------------------------------------+
 |                                                               |
 |   ONETEP is based on developments described in the following  |
 |   publications:                                               |
 |                                                               |
 |  "Nonorthogonal generalized Wannier function pseudopotential  |
 |   plane-wave method".                                         |
 |   C.-K. Skylaris, A. A. Mostofi, P. D. Haynes, O. Dieguez,    |
 |   M. C. Payne.                                                |
 |   Phys. Rev. B 66 035119 (2002).                              |
 |                                                               |
 |  "Preconditioned iterative minimization for linear-scaling    |
 |   electronic structure calculations".                         |
 |   A. A. Mostofi, P. D. Haynes, C.-K. Skylaris, M. C. Payne.   |
 |   J. Chem. Phys. 119(17), pp.8842-8848 (2003).                |
 |                                                               |
 |  "Total-energy calculations on a real space grid with         |
 |   localized functions and a plane-wave basis".                |
 |   A. A. Mostofi, C.-K. Skylaris, P. D. Haynes, M. C. Payne.   |
 |   Comput. Phys. Commun. 147, pp.788-802 (2002).               |
 |                                                               |
 |  "Accurate kinetic energy evaluation in electronic structure  |
 |   calculations with localized functions on real space grids"  |
 |   C.-K. Skylaris, A. A. Mostofi, P. D. Haynes, C. J. Pickard, |
 |   M. C. Payne.                                                |
 |   Comput. Phys. Commun. 140, pp.315-322 (2001).               |
 |                                                               |
 |  "Accurate ionic forces and geometry optimization in linear-  |
 |   scaling density-functional theory with local orbitals"      |
 |   N. D. M. Hine, M. Robinson, P. D. Haynes, C.-K. Skylaris,   |
 |   M. C. Payne, and A. A. Mostofi.                             |
 |   Phys. Rev. B 83 195102 (2011).                              |
 |                                                               |
 +---------------------------------------------------------------+

Job started: 10-03-2020 14:39 (-0000)
 
Reading parameters from file "10.0618_GO_manual_4x64graphite.dat" ...

WARNING: "cutoff_energy" not specified, but "psinc_spacing" specified.
         Using the latter to set the KE cutoff energy to  732.32021eV,
         thus *overriding* the default.

... done

If your calculation crashes here, before "Checking processes and threads..."
is displayed, then your stack size is insufficient.
If so, use "ulimit -s unlimited" at runtime.
You can disable this check with "check_stack_size F".

Checking processes and threads...
   Determining the default number of threads...
      No default threads set at compilation time: defaulting to 1.
      OpenMP library call suggests 4 threads.
      Hybrid MPI-OpenMP compilation detected.
      Number of MPI processes > 1.
      OMP_NUM_THREADS environment variable present and
      its value matches the one obtained from the OpenMP library call.
      Using this value as default.
      Default threads: 4
      Default applies to threads_max and threads_num_fftboxes.
      Settings in the input file override this default.
   ... done

   Running with 40 MPI processes.
   There are 10 MPI processes running on the same node as the root process.
   Each MPI process is using: 
               1 threads for simulation cell FFTs.
               1 threads for parallel FFT box operations.
               4 threads for loops over batched FFT box operations.
               4 threads in other parallel regions.
... done

Basic input checks...
Resetting ngwf_cg_rotate to TRUE for EDFT calculations
... done

Reading geometry and species blocks from file "10.0618_GO_manual_4x64graphite.dat" ...
    
  PSINC grid spacing along a1 set to   0.511215680000a0 from input file.
  PSINC grid spacing along a2 set to   0.531284090000a0 from input file.
  PSINC grid spacing along a3 set to   0.507042280000a0 from input file.
  Number of PPD points along a3 set to 1.  This is 
  the default value, it may have been provided also in the input file.
... done
 Writing xyz coordinates to file "10.0618_GO_manual_4x64graphite.xyz" ... done


--------------------------------------------------------------------------------
---------------------------------- INPUT FILE ----------------------------------
--------------------------------------------------------------------------------

task : singlepoint                                                              
do_properties : true                                                            
dx_format T                                                                     
edft T                                                                          
output_detail VERBOSE                                                           
write_xyz T                                                                     
xc_functional VDWDF                                                             
PSINC_SPACING 0.51121568 0.53128409 0.50704228                                  
paw T                                                                           
pdos_max_l = 2                                                                  
dos_smear  0.1 eV                                                               
popn_calculate T                                                                
PDOS_PSEUDOATOMIC T                                                             
PDOS_REDUCE_SWS F                                                               
PDOS_CONSTRUCT_BASIS F                                                          
PDOS_LOWDIN T                                                                   
PDOS_ORTH_ATOM_BLOCKS F                                                         
PDOS_LCAO_OPTIMIZE F                                                            
pdos_optados_output T                                                           
homo_plot 0                                                                     
lumo_plot 0                                                                     
homo_dens_plot -1                                                               
lumo_dens_plot -1                                                               
%BLOCK SPECIES                                                                  
C C 6 4 9.0                                                                     
%ENDBLOCK SPECIES                                                               
%BLOCK SPECIES_POT                                                              
C "~/pp/paw/c_pbe_abinit.paw"                                                   
%ENDBLOCK SPECIES_POT                                                           
%BLOCK SPECIES_ATOMIC_SET                                                       
C "SOLVE conf=2s2 2p2"                                                          
%ENDBLOCK SPECIES_ATOMIC_SET                                                    
%BLOCK LATTICE_CART                                                             
32.21  0.00  0.00                                                               
0.00 18.59  0.00                                                                
0.00  0.00 190.14                                                               
%ENDBLOCK LATTICE_CART                                                          
%BLOCK POSITIONS_ABS                                                            
C  0.00  0.00  9.51                                                             
C  0.00  0.00 47.54                                                             
C  0.00  0.00 85.56                                                             
C  0.00  0.00 123.59                                                            
C  0.00  0.00 161.62                                                            
C  0.00  4.65  9.51                                                             
C  0.00  4.65 47.54                                                             
C  0.00  4.65 85.56                                                             
C  0.00  4.65 123.59                                                            
C  0.00  4.65 161.62                                                            
C  4.03  2.32  9.51                                                             
C  4.03  2.32 47.54                                                             
C  4.03  2.32 85.56                                                             
C  4.03  2.32 123.59                                                            
C  4.03  2.32 161.62                                                            
C  8.05  0.00  9.51                                                             
C  8.05  0.00 47.54                                                             
C  8.05  0.00 85.56                                                             
C  8.05  0.00 123.59                                                            
C  8.05  0.00 161.62                                                            
C  0.00  9.30  9.51                                                             
C  0.00  9.30 47.54                                                             
C  0.00  9.30 85.56                                                             
C  0.00  9.30 123.59                                                            
C  0.00  9.30 161.62                                                            
C  4.03  6.97  9.51                                                             
C  4.03  6.97 47.54                                                             
C  4.03  6.97 85.56                                                             
C  4.03  6.97 123.59                                                            
C  4.03  6.97 161.62                                                            
C  8.05  4.65  9.51                                                             
C  8.05  4.65 47.54                                                             
C  8.05  4.65 85.56                                                             
C  8.05  4.65 123.59                                                            
C  8.05  4.65 161.62                                                            
C 12.08  2.32  9.51                                                             
C 12.08  2.32 47.54                                                             
C 12.08  2.32 85.56                                                             
C 12.08  2.32 123.59                                                            
C 12.08  2.32 161.62                                                            
C 16.10  0.00  9.51                                                             
C 16.10  0.00 47.54                                                             
C 16.10  0.00 85.56                                                             
C 16.10  0.00 123.59                                                            
C 16.10  0.00 161.62                                                            
C  0.00 13.95  9.51                                                             
C  0.00 13.95 47.54                                                             
C  0.00 13.95 85.56                                                             
C  0.00 13.95 123.59                                                            
C  0.00 13.95 161.62                                                            
C  4.03 11.62  9.51                                                             
C  4.03 11.62 47.54                                                             
C  4.03 11.62 85.56                                                             
C  4.03 11.62 123.59                                                            
C  4.03 11.62 161.62                                                            
C  8.05  9.30  9.51                                                             
C  8.05  9.30 47.54                                                             
C  8.05  9.30 85.56                                                             
C  8.05  9.30 123.59                                                            
C  8.05  9.30 161.62                                                            
C 12.08  6.97  9.51                                                             
C 12.08  6.97 47.54                                                             
C 12.08  6.97 85.56                                                             
C 12.08  6.97 123.59                                                            
C 12.08  6.97 161.62                                                            
C 16.10  4.65  9.51                                                             
C 16.10  4.65 47.54                                                             
C 16.10  4.65 85.56                                                             
C 16.10  4.65 123.59                                                            
C 16.10  4.65 161.62                                                            
C 20.13  2.32  9.51                                                             
C 20.13  2.32 47.54                                                             
C 20.13  2.32 85.56                                                             
C 20.13  2.32 123.59                                                            
C 20.13  2.32 161.62                                                            
C 24.16  0.00  9.51                                                             
C 24.16  0.00 47.54                                                             
C 24.16  0.00 85.56                                                             
C 24.16  0.00 123.59                                                            
C 24.16  0.00 161.62                                                            
C  4.03 16.27  9.51                                                             
C  4.03 16.27 47.54                                                             
C  4.03 16.27 85.56                                                             
C  4.03 16.27 123.59                                                            
C  4.03 16.27 161.62                                                            
C  8.05 13.95  9.51                                                             
C  8.05 13.95 47.54                                                             
C  8.05 13.95 85.56                                                             
C  8.05 13.95 123.59                                                            
C  8.05 13.95 161.62                                                            
C 12.08 11.62  9.51                                                             
C 12.08 11.62 47.54                                                             
C 12.08 11.62 85.56                                                             
C 12.08 11.62 123.59                                                            
C 12.08 11.62 161.62                                                            
C 16.10  9.30  9.51                                                             
C 16.10  9.30 47.54                                                             
C 16.10  9.30 85.56                                                             
C 16.10  9.30 123.59                                                            
C 16.10  9.30 161.62                                                            
C 20.13  6.97  9.51                                                             
C 20.13  6.97 47.54                                                             
C 20.13  6.97 85.56                                                             
C 20.13  6.97 123.59                                                            
C 20.13  6.97 161.62                                                            
C 24.16  4.65  9.51                                                             
C 24.16  4.65 47.54                                                             
C 24.16  4.65 85.56                                                             
C 24.16  4.65 123.59                                                            
C 24.16  4.65 161.62                                                            
C 28.18  2.32  9.51                                                             
C 28.18  2.32 47.54                                                             
C 28.18  2.32 85.56                                                             
C 28.18  2.32 123.59                                                            
C 28.18  2.32 161.62                                                            
C 12.08 16.27  9.51                                                             
C 12.08 16.27 47.54                                                             
C 12.08 16.27 85.56                                                             
C 12.08 16.27 123.59                                                            
C 12.08 16.27 161.62                                                            
C 16.10 13.95  9.51                                                             
C 16.10 13.95 47.54                                                             
C 16.10 13.95 85.56                                                             
C 16.10 13.95 123.59                                                            
C 16.10 13.95 161.62                                                            
C 20.13 11.62  9.51                                                             
C 20.13 11.62 47.54                                                             
C 20.13 11.62 85.56                                                             
C 20.13 11.62 123.59                                                            
C 20.13 11.62 161.62                                                            
C 24.16  9.30  9.51                                                             
C 24.16  9.30 47.54                                                             
C 24.16  9.30 85.56                                                             
C 24.16  9.30 123.59                                                            
C 24.16  9.30 161.62                                                            
C 28.18  6.97  9.51                                                             
C 28.18  6.97 47.54                                                             
C 28.18  6.97 85.56                                                             
C 28.18  6.97 123.59                                                            
C 28.18  6.97 161.62                                                            
C 20.13 16.27  9.51                                                             
C 20.13 16.27 47.54                                                             
C 20.13 16.27 85.56                                                             
C 20.13 16.27 123.59                                                            
C 20.13 16.27 161.62                                                            
C 24.16 13.95  9.51                                                             
C 24.16 13.95 47.54                                                             
C 24.16 13.95 85.56                                                             
C 24.16 13.95 123.59                                                            
C 24.16 13.95 161.62                                                            
C 28.18 11.62  9.51                                                             
C 28.18 11.62 47.54                                                             
C 28.18 11.62 85.56                                                             
C 28.18 11.62 123.59                                                            
C 28.18 11.62 161.62                                                            
C 28.18 16.27  9.51                                                             
C 28.18 16.27 47.54                                                             
C 28.18 16.27 85.56                                                             
C 28.18 16.27 123.59                                                            
C 28.18 16.27 161.62                                                            
C  0.00  0.00 28.52                                                             
C  0.00  0.00 66.55                                                             
C  0.00  0.00 104.58                                                            
C  0.00  0.00 142.61                                                            
C  0.00  0.00 180.63                                                            
C  0.00  4.65 28.52                                                             
C  0.00  4.65 66.55                                                             
C  0.00  4.65 104.58                                                            
C  0.00  4.65 142.61                                                            
C  0.00  4.65 180.63                                                            
C  4.03  2.32 28.52                                                             
C  4.03  2.32 66.55                                                             
C  4.03  2.32 104.58                                                            
C  4.03  2.32 142.61                                                            
C  4.03  2.32 180.63                                                            
C  8.05  0.00 28.52                                                             
C  8.05  0.00 66.55                                                             
C  8.05  0.00 104.58                                                            
C  8.05  0.00 142.61                                                            
C  8.05  0.00 180.63                                                            
C  0.00  9.30 28.52                                                             
C  0.00  9.30 66.55                                                             
C  0.00  9.30 104.58                                                            
C  0.00  9.30 142.61                                                            
C  0.00  9.30 180.63                                                            
C  4.03  6.97 28.52                                                             
C  4.03  6.97 66.55                                                             
C  4.03  6.97 104.58                                                            
C  4.03  6.97 142.61                                                            
C  4.03  6.97 180.63                                                            
C  8.05  4.65 28.52                                                             
C  8.05  4.65 66.55                                                             
C  8.05  4.65 104.58                                                            
C  8.05  4.65 142.61                                                            
C  8.05  4.65 180.63                                                            
C 12.08  2.32 28.52                                                             
C 12.08  2.32 66.55                                                             
C 12.08  2.32 104.58                                                            
C 12.08  2.32 142.61                                                            
C 12.08  2.32 180.63                                                            
C 16.10  0.00 28.52                                                             
C 16.10  0.00 66.55                                                             
C 16.10  0.00 104.58                                                            
C 16.10  0.00 142.61                                                            
C 16.10  0.00 180.63                                                            
C  0.00 13.95 28.52                                                             
C  0.00 13.95 66.55                                                             
C  0.00 13.95 104.58                                                            
C  0.00 13.95 142.61                                                            
C  0.00 13.95 180.63                                                            
C  4.03 11.62 28.52                                                             
C  4.03 11.62 66.55                                                             
C  4.03 11.62 104.58                                                            
C  4.03 11.62 142.61                                                            
C  4.03 11.62 180.63                                                            
C  8.05  9.30 28.52                                                             
C  8.05  9.30 66.55                                                             
C  8.05  9.30 104.58                                                            
C  8.05  9.30 142.61                                                            
C  8.05  9.30 180.63                                                            
C 12.08  6.97 28.52                                                             
C 12.08  6.97 66.55                                                             
C 12.08  6.97 104.58                                                            
C 12.08  6.97 142.61                                                            
C 12.08  6.97 180.63                                                            
C 16.10  4.65 28.52                                                             
C 16.10  4.65 66.55                                                             
C 16.10  4.65 104.58                                                            
C 16.10  4.65 142.61                                                            
C 16.10  4.65 180.63                                                            
C 20.13  2.32 28.52                                                             
C 20.13  2.32 66.55                                                             
C 20.13  2.32 104.58                                                            
C 20.13  2.32 142.61                                                            
C 20.13  2.32 180.63                                                            
C 24.16  0.00 28.52                                                             
C 24.16  0.00 66.55                                                             
C 24.16  0.00 104.58                                                            
C 24.16  0.00 142.61                                                            
C 24.16  0.00 180.63                                                            
C  4.03 16.27 28.52                                                             
C  4.03 16.27 66.55                                                             
C  4.03 16.27 104.58                                                            
C  4.03 16.27 142.61                                                            
C  4.03 16.27 180.63                                                            
C  8.05 13.95 28.52                                                             
C  8.05 13.95 66.55                                                             
C  8.05 13.95 104.58                                                            
C  8.05 13.95 142.61                                                            
C  8.05 13.95 180.63                                                            
C 12.08 11.62 28.52                                                             
C 12.08 11.62 66.55                                                             
C 12.08 11.62 104.58                                                            
C 12.08 11.62 142.61                                                            
C 12.08 11.62 180.63                                                            
C 16.10  9.30 28.52                                                             
C 16.10  9.30 66.55                                                             
C 16.10  9.30 104.58                                                            
C 16.10  9.30 142.61                                                            
C 16.10  9.30 180.63                                                            
C 20.13  6.97 28.52                                                             
C 20.13  6.97 66.55                                                             
C 20.13  6.97 104.58                                                            
C 20.13  6.97 142.61                                                            
C 20.13  6.97 180.63                                                            
C 24.16  4.65 28.52                                                             
C 24.16  4.65 66.55                                                             
C 24.16  4.65 104.58                                                            
C 24.16  4.65 142.61                                                            
C 24.16  4.65 180.63                                                            
C 28.18  2.32 28.52                                                             
C 28.18  2.32 66.55                                                             
C 28.18  2.32 104.58                                                            
C 28.18  2.32 142.61                                                            
C 28.18  2.32 180.63                                                            
C 12.08 16.27 28.52                                                             
C 12.08 16.27 66.55                                                             
C 12.08 16.27 104.58                                                            
C 12.08 16.27 142.61                                                            
C 12.08 16.27 180.63                                                            
C 16.10 13.95 28.52                                                             
C 16.10 13.95 66.55                                                             
C 16.10 13.95 104.58                                                            
C 16.10 13.95 142.61                                                            
C 16.10 13.95 180.63                                                            
C 20.13 11.62 28.52                                                             
C 20.13 11.62 66.55                                                             
C 20.13 11.62 104.58                                                            
C 20.13 11.62 142.61                                                            
C 20.13 11.62 180.63                                                            
C 24.16  9.30 28.52                                                             
C 24.16  9.30 66.55                                                             
C 24.16  9.30 104.58                                                            
C 24.16  9.30 142.61                                                            
C 24.16  9.30 180.63                                                            
C 28.18  6.97 28.52                                                             
C 28.18  6.97 66.55                                                             
C 28.18  6.97 104.58                                                            
C 28.18  6.97 142.61                                                            
C 28.18  6.97 180.63                                                            
C 20.13 16.27 28.52                                                             
C 20.13 16.27 66.55                                                             
C 20.13 16.27 104.58                                                            
C 20.13 16.27 142.61                                                            
C 20.13 16.27 180.63                                                            
C 24.16 13.95 28.52                                                             
C 24.16 13.95 66.55                                                             
C 24.16 13.95 104.58                                                            
C 24.16 13.95 142.61                                                            
C 24.16 13.95 180.63                                                            
C 28.18 11.62 28.52                                                             
C 28.18 11.62 66.55                                                             
C 28.18 11.62 104.58                                                            
C 28.18 11.62 142.61                                                            
C 28.18 11.62 180.63                                                            
C 28.18 16.27 28.52                                                             
C 28.18 16.27 66.55                                                             
C 28.18 16.27 104.58                                                            
C 28.18 16.27 142.61                                                            
C 28.18 16.27 180.63                                                            
C  1.34  2.32  9.51                                                             
C  1.34  2.32 47.54                                                             
C  1.34  2.32 85.56                                                             
C  1.34  2.32 123.59                                                            
C  1.34  2.32 161.62                                                            
C  5.37  0.00  9.51                                                             
C  5.37  0.00 47.54                                                             
C  5.37  0.00 85.56                                                             
C  5.37  0.00 123.59                                                            
C  5.37  0.00 161.62                                                            
C  1.34  6.97  9.51                                                             
C  1.34  6.97 47.54                                                             
C  1.34  6.97 85.56                                                             
C  1.34  6.97 123.59                                                            
C  1.34  6.97 161.62                                                            
C  5.37  4.65  9.51                                                             
C  5.37  4.65 47.54                                                             
C  5.37  4.65 85.56                                                             
C  5.37  4.65 123.59                                                            
C  5.37  4.65 161.62                                                            
C  9.39  2.32  9.51                                                             
C  9.39  2.32 47.54                                                             
C  9.39  2.32 85.56                                                             
C  9.39  2.32 123.59                                                            
C  9.39  2.32 161.62                                                            
C 13.42  0.00  9.51                                                             
C 13.42  0.00 47.54                                                             
C 13.42  0.00 85.56                                                             
C 13.42  0.00 123.59                                                            
C 13.42  0.00 161.62                                                            
C  1.34 11.62  9.51                                                             
C  1.34 11.62 47.54                                                             
C  1.34 11.62 85.56                                                             
C  1.34 11.62 123.59                                                            
C  1.34 11.62 161.62                                                            
C  5.37  9.30  9.51                                                             
C  5.37  9.30 47.54                                                             
C  5.37  9.30 85.56                                                             
C  5.37  9.30 123.59                                                            
C  5.37  9.30 161.62                                                            
C  9.39  6.97  9.51                                                             
C  9.39  6.97 47.54                                                             
C  9.39  6.97 85.56                                                             
C  9.39  6.97 123.59                                                            
C  9.39  6.97 161.62                                                            
C 13.42  4.65  9.51                                                             
C 13.42  4.65 47.54                                                             
C 13.42  4.65 85.56                                                             
C 13.42  4.65 123.59                                                            
C 13.42  4.65 161.62                                                            
C 17.45  2.32  9.51                                                             
C 17.45  2.32 47.54                                                             
C 17.45  2.32 85.56                                                             
C 17.45  2.32 123.59                                                            
C 17.45  2.32 161.62                                                            
C 21.47  0.00  9.51                                                             
C 21.47  0.00 47.54                                                             
C 21.47  0.00 85.56                                                             
C 21.47  0.00 123.59                                                            
C 21.47  0.00 161.62                                                            
C  1.34 16.27  9.51                                                             
C  1.34 16.27 47.54                                                             
C  1.34 16.27 85.56                                                             
C  1.34 16.27 123.59                                                            
C  1.34 16.27 161.62                                                            
C  5.37 13.95  9.51                                                             
C  5.37 13.95 47.54                                                             
C  5.37 13.95 85.56                                                             
C  5.37 13.95 123.59                                                            
C  5.37 13.95 161.62                                                            
C  9.39 11.62  9.51                                                             
C  9.39 11.62 47.54                                                             
C  9.39 11.62 85.56                                                             
C  9.39 11.62 123.59                                                            
C  9.39 11.62 161.62                                                            
C 13.42  9.30  9.51                                                             
C 13.42  9.30 47.54                                                             
C 13.42  9.30 85.56                                                             
C 13.42  9.30 123.59                                                            
C 13.42  9.30 161.62                                                            
C 17.45  6.97  9.51                                                             
C 17.45  6.97 47.54                                                             
C 17.45  6.97 85.56                                                             
C 17.45  6.97 123.59                                                            
C 17.45  6.97 161.62                                                            
C 21.47  4.65  9.51                                                             
C 21.47  4.65 47.54                                                             
C 21.47  4.65 85.56                                                             
C 21.47  4.65 123.59                                                            
C 21.47  4.65 161.62                                                            
C 25.50  2.32  9.51                                                             
C 25.50  2.32 47.54                                                             
C 25.50  2.32 85.56                                                             
C 25.50  2.32 123.59                                                            
C 25.50  2.32 161.62                                                            
C 29.52  0.00  9.51                                                             
C 29.52  0.00 47.54                                                             
C 29.52  0.00 85.56                                                             
C 29.52  0.00 123.59                                                            
C 29.52  0.00 161.62                                                            
C  9.39 16.27  9.51                                                             
C  9.39 16.27 47.54                                                             
C  9.39 16.27 85.56                                                             
C  9.39 16.27 123.59                                                            
C  9.39 16.27 161.62                                                            
C 13.42 13.95  9.51                                                             
C 13.42 13.95 47.54                                                             
C 13.42 13.95 85.56                                                             
C 13.42 13.95 123.59                                                            
C 13.42 13.95 161.62                                                            
C 17.45 11.62  9.51                                                             
C 17.45 11.62 47.54                                                             
C 17.45 11.62 85.56                                                             
C 17.45 11.62 123.59                                                            
C 17.45 11.62 161.62                                                            
C 21.47  9.30  9.51                                                             
C 21.47  9.30 47.54                                                             
C 21.47  9.30 85.56                                                             
C 21.47  9.30 123.59                                                            
C 21.47  9.30 161.62                                                            
C 25.50  6.97  9.51                                                             
C 25.50  6.97 47.54                                                             
C 25.50  6.97 85.56                                                             
C 25.50  6.97 123.59                                                            
C 25.50  6.97 161.62                                                            
C 29.52  4.65  9.51                                                             
C 29.52  4.65 47.54                                                             
C 29.52  4.65 85.56                                                             
C 29.52  4.65 123.59                                                            
C 29.52  4.65 161.62                                                            
C 17.45 16.27  9.51                                                             
C 17.45 16.27 47.54                                                             
C 17.45 16.27 85.56                                                             
C 17.45 16.27 123.59                                                            
C 17.45 16.27 161.62                                                            
C 21.47 13.95  9.51                                                             
C 21.47 13.95 47.54                                                             
C 21.47 13.95 85.56                                                             
C 21.47 13.95 123.59                                                            
C 21.47 13.95 161.62                                                            
C 25.50 11.62  9.51                                                             
C 25.50 11.62 47.54                                                             
C 25.50 11.62 85.56                                                             
C 25.50 11.62 123.59                                                            
C 25.50 11.62 161.62                                                            
C 29.52  9.30  9.51                                                             
C 29.52  9.30 47.54                                                             
C 29.52  9.30 85.56                                                             
C 29.52  9.30 123.59                                                            
C 29.52  9.30 161.62                                                            
C 25.50 16.27  9.51                                                             
C 25.50 16.27 47.54                                                             
C 25.50 16.27 85.56                                                             
C 25.50 16.27 123.59                                                            
C 25.50 16.27 161.62                                                            
C 29.52 13.95  9.51                                                             
C 29.52 13.95 47.54                                                             
C 29.52 13.95 85.56                                                             
C 29.52 13.95 123.59                                                            
C 29.52 13.95 161.62                                                            
C  2.68  0.00 28.52                                                             
C  2.68  0.00 66.55                                                             
C  2.68  0.00 104.58                                                            
C  2.68  0.00 142.61                                                            
C  2.68  0.00 180.63                                                            
C  2.68  4.65 28.52                                                             
C  2.68  4.65 66.55                                                             
C  2.68  4.65 104.58                                                            
C  2.68  4.65 142.61                                                            
C  2.68  4.65 180.63                                                            
C  6.71  2.32 28.52                                                             
C  6.71  2.32 66.55                                                             
C  6.71  2.32 104.58                                                            
C  6.71  2.32 142.61                                                            
C  6.71  2.32 180.63                                                            
C 10.74  0.00 28.52                                                             
C 10.74  0.00 66.55                                                             
C 10.74  0.00 104.58                                                            
C 10.74  0.00 142.61                                                            
C 10.74  0.00 180.63                                                            
C  2.68  9.30 28.52                                                             
C  2.68  9.30 66.55                                                             
C  2.68  9.30 104.58                                                            
C  2.68  9.30 142.61                                                            
C  2.68  9.30 180.63                                                            
C  6.71  6.97 28.52                                                             
C  6.71  6.97 66.55                                                             
C  6.71  6.97 104.58                                                            
C  6.71  6.97 142.61                                                            
C  6.71  6.97 180.63                                                            
C 10.74  4.65 28.52                                                             
C 10.74  4.65 66.55                                                             
C 10.74  4.65 104.58                                                            
C 10.74  4.65 142.61                                                            
C 10.74  4.65 180.63                                                            
C 14.76  2.32 28.52                                                             
C 14.76  2.32 66.55                                                             
C 14.76  2.32 104.58                                                            
C 14.76  2.32 142.61                                                            
C 14.76  2.32 180.63                                                            
C 18.79  0.00 28.52                                                             
C 18.79  0.00 66.55                                                             
C 18.79  0.00 104.58                                                            
C 18.79  0.00 142.61                                                            
C 18.79  0.00 180.63                                                            
C  2.68 13.95 28.52                                                             
C  2.68 13.95 66.55                                                             
C  2.68 13.95 104.58                                                            
C  2.68 13.95 142.61                                                            
C  2.68 13.95 180.63                                                            
C  6.71 11.62 28.52                                                             
C  6.71 11.62 66.55                                                             
C  6.71 11.62 104.58                                                            
C  6.71 11.62 142.61                                                            
C  6.71 11.62 180.63                                                            
C 10.74  9.30 28.52                                                             
C 10.74  9.30 66.55                                                             
C 10.74  9.30 104.58                                                            
C 10.74  9.30 142.61                                                            
C 10.74  9.30 180.63                                                            
C 14.76  6.97 28.52                                                             
C 14.76  6.97 66.55                                                             
C 14.76  6.97 104.58                                                            
C 14.76  6.97 142.61                                                            
C 14.76  6.97 180.63                                                            
C 18.79  4.65 28.52                                                             
C 18.79  4.65 66.55                                                             
C 18.79  4.65 104.58                                                            
C 18.79  4.65 142.61                                                            
C 18.79  4.65 180.63                                                            
C 22.81  2.32 28.52                                                             
C 22.81  2.32 66.55                                                             
C 22.81  2.32 104.58                                                            
C 22.81  2.32 142.61                                                            
C 22.81  2.32 180.63                                                            
C 26.84  0.00 28.52                                                             
C 26.84  0.00 66.55                                                             
C 26.84  0.00 104.58                                                            
C 26.84  0.00 142.61                                                            
C 26.84  0.00 180.63                                                            
C  6.71 16.27 28.52                                                             
C  6.71 16.27 66.55                                                             
C  6.71 16.27 104.58                                                            
C  6.71 16.27 142.61                                                            
C  6.71 16.27 180.63                                                            
C 10.74 13.95 28.52                                                             
C 10.74 13.95 66.55                                                             
C 10.74 13.95 104.58                                                            
C 10.74 13.95 142.61                                                            
C 10.74 13.95 180.63                                                            
C 14.76 11.62 28.52                                                             
C 14.76 11.62 66.55                                                             
C 14.76 11.62 104.58                                                            
C 14.76 11.62 142.61                                                            
C 14.76 11.62 180.63                                                            
C 18.79  9.30 28.52                                                             
C 18.79  9.30 66.55                                                             
C 18.79  9.30 104.58                                                            
C 18.79  9.30 142.61                                                            
C 18.79  9.30 180.63                                                            
C 22.81  6.97 28.52                                                             
C 22.81  6.97 66.55                                                             
C 22.81  6.97 104.58                                                            
C 22.81  6.97 142.61                                                            
C 22.81  6.97 180.63                                                            
C 26.84  4.65 28.52                                                             
C 26.84  4.65 66.55                                                             
C 26.84  4.65 104.58                                                            
C 26.84  4.65 142.61                                                            
C 26.84  4.65 180.63                                                            
C 30.86  2.32 28.52                                                             
C 30.86  2.32 66.55                                                             
C 30.86  2.32 104.58                                                            
C 30.86  2.32 142.61                                                            
C 30.86  2.32 180.63                                                            
C 14.76 16.27 28.52                                                             
C 14.76 16.27 66.55                                                             
C 14.76 16.27 104.58                                                            
C 14.76 16.27 142.61                                                            
C 14.76 16.27 180.63                                                            
C 18.79 13.95 28.52                                                             
C 18.79 13.95 66.55                                                             
C 18.79 13.95 104.58                                                            
C 18.79 13.95 142.61                                                            
C 18.79 13.95 180.63                                                            
C 22.81 11.62 28.52                                                             
C 22.81 11.62 66.55                                                             
C 22.81 11.62 104.58                                                            
C 22.81 11.62 142.61                                                            
C 22.81 11.62 180.63                                                            
C 26.84  9.30 28.52                                                             
C 26.84  9.30 66.55                                                             
C 26.84  9.30 104.58                                                            
C 26.84  9.30 142.61                                                            
C 26.84  9.30 180.63                                                            
C 30.86  6.97 28.52                                                             
C 30.86  6.97 66.55                                                             
C 30.86  6.97 104.58                                                            
C 30.86  6.97 142.61                                                            
C 30.86  6.97 180.63                                                            
C 22.81 16.27 28.52                                                             
C 22.81 16.27 66.55                                                             
C 22.81 16.27 104.58                                                            
C 22.81 16.27 142.61                                                            
C 22.81 16.27 180.63                                                            
C 26.84 13.95 28.52                                                             
C 26.84 13.95 66.55                                                             
C 26.84 13.95 104.58                                                            
C 26.84 13.95 142.61                                                            
C 26.84 13.95 180.63                                                            
C 30.86 11.62 28.52                                                             
C 30.86 11.62 66.55                                                             
C 30.86 11.62 104.58                                                            
C 30.86 11.62 142.61                                                            
C 30.86 11.62 180.63                                                            
C 30.86 16.27 28.52                                                             
C 30.86 16.27 66.55                                                             
C 30.86 16.27 104.58                                                            
C 30.86 16.27 142.61                                                            
C 30.86 16.27 180.63                                                            
%ENDBLOCK POSITIONS_ABS                                                         

--------------------------------------------------------------------------------
-------------------------------- END INPUT FILE --------------------------------
--------------------------------------------------------------------------------


 
<<<<<<<<<<<<<<<<<<<<<<<<<<<<<<<<< Full system >>>>>>>>>>>>>>>>>>>>>>>>>>>>>>>>>>
<<<<<<<<<<<<<<<<<<<<<<<<<<< PAW Dataset information >>>>>>>>>>>>>>>>>>>>>>>>>>>
File: ~/pp/paw/c_pbe_abinit.paw; rc = 1.25 bohr; shape type =  3; rshape = 1.25 bohr;
  Atomic number:  6;  ionic charge:  4.000000
    Partial Wave 1: l = 0
    Partial Wave 2: l = 0
    Partial Wave 3: l = 1
    Partial Wave 4: l = 1
  Core charge supplied for Nonlinear Core Corrections
<<<<<<<<<<<<<<<<<<<<<<<<<<<<<<<<<<<<<<< >>>>>>>>>>>>>>>>>>>>>>>>>>>>>>>>>>>>>>>

-------------------------- Atom counting information ---------------------------
Symbol    Natoms    Nngwfs    Nprojs
  C        640      2560      5120
.......   ......    ......    ......
Totals:    640      2560      5120
--------------------------------------------------------------------------------

=============================== PSINC grid sizes ===============================
                      Simulation cell:   63 x  35 x 375
                              FFT-box:   63 x  35 x 117
                                  PPD:    7 x   5 x   1
Grid space d1=  0.511269841270a0 (KE cutoff=  29.06054Eh = 790.77748eV)
Grid space d2=  0.531142857143a0 (KE cutoff=  26.92659Eh = 732.70972eV)
Grid space d3=  0.507040000000a0 (KE cutoff=  29.54742Eh = 804.02620eV)
================================================================================
  
WARNING in cell_grid_distribute:
Average of less than one 23-slab per node, so workload cannot be
equally balanced between nodes.

********************* Fourier parallelisation information **********************
       Coarse grid (whole simulation cell) dimensions:     63    35   375
          Real-space ('12') slabs/node (min max mean):      9    10     9
         Recip-space ('23') slabs/node (min max mean):      0     1     0
********************************************************************************

********************* Fourier parallelisation information **********************
       Double grid (whole simulation cell) dimensions:    126    70   750
          Real-space ('12') slabs/node (min max mean):     18    19    18
         Recip-space ('23') slabs/node (min max mean):      1     2     1
********************************************************************************

Atom SCF Calculation for C  : Z (AE atom) =   6 : Z (PS atom) =   4
Config String: 2s2 2p2
Orbitals (num,occ):  2     2.00 2.00
Orbitals   (num,l):  2        0    1
Real-space Grid (nr,dr,rmax): 1293    0.0069659443    9.0000000000
Spherical Bessel Basis (nsws,lmax,cutoff):   37    2  161.4736382572
Confining potential (l,width,scale):  0    3.0000000000  100.0000000000
Confining potential (l,width,scale):  1    3.0000000000  100.0000000000
  1         -5.4966243538   -1.3415066196    4.5135257941   -1.6613421942
  2         -5.4660395227   -1.4172174419    4.4326892861   -1.6365362708
  3         -5.4759582348   -1.4337557188    4.4144498970   -1.6324663609
  4         -5.4843804720   -1.4365219414    4.4114201180   -1.6322033818
  5         -5.4882713954   -1.4381734139    4.4096331461   -1.6320227940
  6         -5.4902132675   -1.4390636620    4.4086785626   -1.6319270645
  7         -5.4912093711   -1.4395303631    4.4081823351   -1.6318789226
  8         -5.4917264140   -1.4397726342    4.4079268833   -1.6318551036
  9         -5.4919964206   -1.4398979410    4.4077958777   -1.6318434025
 10         -5.4921379132   -1.4399626875    4.4077287721   -1.6318376788
 11         -5.4922122245   -1.4399961532    4.4076943935   -1.6318348878
 12         -5.4922513136   -1.4400134684    4.4076767658   -1.6318335308
 13         -5.4922719001   -1.4400224400    4.4076677156   -1.6318328728
 14         -5.4922827535   -1.4400270959    4.4076630621   -1.6318325547
 15         -5.4922884809   -1.4400295164    4.4076606653   -1.6318324014
 16         -5.4922915059   -1.4400307770    4.4076594286   -1.6318323279
 17         -5.4922931051   -1.4400314347    4.4076587894   -1.6318322927
 18         -5.4922939512   -1.4400317785    4.4076584583   -1.6318322760
 19         -5.4922943993   -1.4400319585    4.4076582865   -1.6318322681
 20         -5.4922946368   -1.4400320529    4.4076581972   -1.6318322644
 21         -5.4922947627   -1.4400321025    4.4076581507   -1.6318322627
 22         -5.4922948296   -1.4400321287    4.4076581265   -1.6318322619
Atom SCF converged after  22 iterations to a total energy of     -5.49229483

Determining parallel strategy ...
... using space-filling curve
... NGWF load balancing: max     64;  min     64;  average     64
... Projector load balancing: max    128;  min    128;  average    128
... done
Calculating Ewald energy ...
              Ewald: real-space energy =   12402.018640
        Ewald: reciprocal-space energy =     620.186779
         Ewald: (sum_charge)**2 Energy =    7845.285310
         Ewald: (sum_charge**2) Energy =     620.224262
                          Ewald Energy =    4556.695847
Basis initialisation ...... NGWF spheres initialised
... Projector spheres initialised
... NGWF tight boxes initialised
... Projector tight boxes initialised
... Tight-boxes gathered
... NGWF basis size (local,global):     692500  27887808
... PAW projector initialisation
... done

============================= Charge Augmentation ==============================
                           Aug box size:   11 x  11 x  11
================================================================================

========================== Sparse matrix information ===========================
                        Overlap matrix filling:   9.84%
                        Density kernel filling: 100.00%
              NGWF-Proj overlap matrix filling:   5.47%
                    Aug Overlap matrix filling:  10.00%
                    Hamiltonian matrix filling:  10.00%
                  NGWF diagonal matrix filling:   0.16%
                             KS matrix filling: 100.00% 
                           KSKS matrix filling: 100.00% 
================================================================================

Sparse matrix initialisation ... done
NGWF initialisation ...... done
============ Calculation of NGWF S^-1 using Hotelling algorithm ================ 
         Iteration  |  Frobenius norm and Maximum abs value    (of I-S*S_n^-1)   
               1       0.48705204E+02     0.97098069E+00
               2       0.47262977E+02     0.94410524E+00
               3       0.45198968E+02     0.89590606E+00
               4       0.42630587E+02     0.81695298E+00
               5       0.39605243E+02     0.71447962E+00
               6       0.36194379E+02     0.66218870E+00
               7       0.32775664E+02     0.61722269E+00
               8       0.29457517E+02     0.57754165E+00
               9       0.25659629E+02     0.52715015E+00
              10       0.20717472E+02     0.44514687E+00
              11       0.14416287E+02     0.32103396E+00
              12       0.76808863E+01     0.17265020E+00
              13       0.25449904E+01     0.54509001E-01
              14       0.33725582E+00     0.64366842E-02
              15       0.72699634E-02     0.11344472E-03
              16       0.47613102E-05     0.49534806E-07
              17       0.31039269E-11     0.20872193E-13
================================================================================
Calculating core density ...
================================= Core Density =================================
               Core den box size:   21 x  21 x  21
================================================================================
 ... done
Up spin density kernel initialisation ...... done

Writing density kernel to file "10.0618_GO_manual_4x64graphite.dkn" ... done

>>> Optimising kernel for current NGWFs:

--------------------------- Ensemble-DFT optimisation --------------------------
Running ScaLAPACK on   40 processor(s).

--------------------------------------------------------------------------------
  Iter                              Commutator    Free_energy(A=E-TS)     DeltaA
#    0                          0.000043035630   -3650.77967293984329  -3.65E+03

Step                       =       0.381966011250
Energy                     =   -3650.779647584623
Entropy (-TS)              =      -0.000025355174
Free energy (A=E-TS)       =   -3650.779672939843
Est. 0K Energy 0.5*(E+A)   =   -3650.779660262233
Residual Non-orthogonality =       0.000000000000
Residual N_electrons       =      -0.000000000047

Spin          Integrated_Ne            Fermi_level     Delta_Fermi_level
   1      2559.999999999609        -0.119060320141             -1.19E-01

                           Spin 1          
     Orb      H-eigenvalues     Occupancies
       1 |    -0.8402666913    1.0000000000 | 
                          ------
    1276 |    -0.1558139973    0.9999908879 | 
    1277 |    -0.1558135144    0.9999908865 | 
    1278 |    -0.1558128804    0.9999908846 | 
    1279 |    -0.1558114239    0.9999908805 | 
    1280 |    -0.1558099845    0.9999908763 | 
                 - Gap at zero temperature -
    1281 |    -0.0821821482    0.0000087609 | 
    1282 |    -0.0821810725    0.0000087579 | 
    1283 |    -0.0821802933    0.0000087557 | 
    1284 |    -0.0821790726    0.0000087524 | 
    1285 |    -0.0821775306    0.0000087481 | 
                          ------
    2560 |     0.7142271882    0.0000000000 | 

                       |  Abs_value |  Threshold | Converged
     Delta_Free_energy |   3.65E+03 |   1.00E-06 |        No
     Delta_Energy      |   3.65E+03 |   1.00E-04 |        No
     Delta_Entropy     |   2.54E-05 |   1.00E-04 |       Yes
     Commutator        |   4.30E-05 |   1.00E-05 |        No
     Delta_Fermi_level |   1.19E-01 |   1.00E-03 |        No

  Line search of the free energy minimum:
  Step_type        Step             Free_energy   Predicted_free_energy
.   Initial    0.000000    -3650.77967293984329
.    Trial1    0.381966    -3650.78174312071178
.    Trial2    0.618034    -3650.78238244602426
. Quadratic    0.808635    -3650.78254355800618    -3650.78254183552281

--------------------------------------------------------------------------------
  Iter                              Commutator    Free_energy(A=E-TS)     DeltaA
#    1                          0.000017461155   -3650.78254355800618  -2.87E-03

Step                       =       0.808634889950
Energy                     =   -3650.782517649891
Entropy (-TS)              =      -0.000025907884
Free energy (A=E-TS)       =   -3650.782543558006
Est. 0K Energy 0.5*(E+A)   =   -3650.782530603949
Residual Non-orthogonality =       0.000000000000
Residual N_electrons       =      -0.000000000231

Spin          Integrated_Ne            Fermi_level     Delta_Fermi_level
   1      2559.999999998309        -0.136409068309             -1.73E-02

                           Spin 1          
     Orb      H-eigenvalues     Occupancies
       1 |    -0.8610019908    1.0000000000 | 
                          ------
    1276 |    -0.1731766313    0.9999909277 | 
    1277 |    -0.1731753544    0.9999909241 | 
    1278 |    -0.1731753531    0.9999909241 | 
    1279 |    -0.1731734854    0.9999909187 | 
    1280 |    -0.1731725593    0.9999909161 | 
                 - Gap at zero temperature -
    1281 |    -0.0996956452    0.0000092287 | 
    1282 |    -0.0996940611    0.0000092241 | 
    1283 |    -0.0996937195    0.0000092231 | 
    1284 |    -0.0996923685    0.0000092192 | 
    1285 |    -0.0996915384    0.0000092167 | 
                          ------
    2560 |     0.6926715189    0.0000000000 | 

                       |  Abs_value |  Threshold | Converged
     Delta_Free_energy |   2.87E-03 |   1.00E-06 |        No
     Delta_Energy      |   2.87E-03 |   1.00E-04 |        No
     Delta_Entropy     |   5.53E-07 |   1.00E-04 |       Yes
     Commutator        |   1.75E-05 |   1.00E-05 |        No
     Delta_Fermi_level |   1.73E-02 |   1.00E-03 |        No

  Line search of the free energy minimum:
  Step_type        Step             Free_energy   Predicted_free_energy
.   Initial    0.000000    -3650.78254355800618
.    Trial1    0.808635    -3650.78194585654046
.    Trial2    0.308871    -3650.78288529424435
. Quadratic    0.304239    -3650.78288537447816    -3650.78288537347453

--------------------------------------------------------------------------------
  Iter                              Commutator    Free_energy(A=E-TS)     DeltaA
#    2                          0.000006284741   -3650.78288537447816  -3.42E-04

Step                       =       0.304239089163
Energy                     =   -3650.782859442828
Entropy (-TS)              =      -0.000025931553
Free energy (A=E-TS)       =   -3650.782885374478
Est. 0K Energy 0.5*(E+A)   =   -3650.782872408653
Residual Non-orthogonality =       0.000000000000
Residual N_electrons       =      -0.000000000098

Spin          Integrated_Ne            Fermi_level     Delta_Fermi_level
   1      2559.999999999289        -0.137632312240             -1.22E-03

                           Spin 1          
     Orb      H-eigenvalues     Occupancies
       1 |    -0.8624743426    1.0000000000 | 
                          ------
    1276 |    -0.1743520815    0.9999907898 | 
    1277 |    -0.1743507597    0.9999907859 | 
    1278 |    -0.1743503363    0.9999907847 | 
    1279 |    -0.1743487228    0.9999907800 | 
    1280 |    -0.1743479076    0.9999907776 | 
                 - Gap at zero temperature -
    1281 |    -0.1008778546    0.0000091099 | 
    1282 |    -0.1008758885    0.0000091042 | 
    1283 |    -0.1008758391    0.0000091041 | 
    1284 |    -0.1008744050    0.0000091000 | 
    1285 |    -0.1008736894    0.0000090979 | 
                          ------
    2560 |     0.6911469800    0.0000000000 | 

                       |  Abs_value |  Threshold | Converged
     Delta_Free_energy |   3.42E-04 |   1.00E-06 |        No
     Delta_Energy      |   3.42E-04 |   1.00E-04 |        No
     Delta_Entropy     |   2.37E-08 |   1.00E-04 |       Yes
     Commutator        |   6.28E-06 |   1.00E-05 |       Yes
     Delta_Fermi_level |   1.22E-03 |   1.00E-03 |        No

  Line search of the free energy minimum:
  Step_type        Step             Free_energy   Predicted_free_energy
.   Initial    0.000000    -3650.78288537447816
.    Trial1    0.304239    -3650.78292496806807
.    Trial2    0.569996    -3650.78292873633745
. Quadratic    0.471967    -3650.78293069056826    -3650.78293069135998

--------------------------------------------------------------------------------
  Iter                              Commutator    Free_energy(A=E-TS)     DeltaA
#    3                          0.000003608120   -3650.78293069056826  -4.53E-05

Step                       =       0.471966541750
Energy                     =   -3650.782904739896
Entropy (-TS)              =      -0.000025950858
Free energy (A=E-TS)       =   -3650.782930690568
Est. 0K Energy 0.5*(E+A)   =   -3650.782917715232
Residual Non-orthogonality =       0.000000000000
Residual N_electrons       =       0.000000000185

Spin          Integrated_Ne            Fermi_level     Delta_Fermi_level
   1      2560.000000001332        -0.138954021788             -1.32E-03

                           Spin 1          
     Orb      H-eigenvalues     Occupancies
       1 |    -0.8640536113    1.0000000000 | 
                          ------
    1276 |    -0.1756619652    0.9999907553 | 
    1277 |    -0.1756606316    0.9999907514 | 
    1278 |    -0.1756598192    0.9999907490 | 
    1279 |    -0.1756583862    0.9999907449 | 
    1280 |    -0.1756577104    0.9999907429 | 
                 - Gap at zero temperature -
    1281 |    -0.1021929339    0.0000090908 | 
    1282 |    -0.1021909533    0.0000090852 | 
    1283 |    -0.1021905543    0.0000090840 | 
    1284 |    -0.1021893026    0.0000090804 | 
    1285 |    -0.1021887283    0.0000090788 | 
                          ------
    2560 |     0.6895199053    0.0000000000 | 

                       |  Abs_value |  Threshold | Converged
     Delta_Free_energy |   4.53E-05 |   1.00E-06 |        No
     Delta_Energy      |   4.53E-05 |   1.00E-04 |       Yes
     Delta_Entropy     |   1.93E-08 |   1.00E-04 |       Yes
     Commutator        |   3.61E-06 |   1.00E-05 |       Yes
     Delta_Fermi_level |   1.32E-03 |   1.00E-03 |        No

  Line search of the free energy minimum:
  Step_type        Step             Free_energy   Predicted_free_energy
.   Initial    0.000000    -3650.78293069056826
.    Trial1    0.471967    -3650.78294339176227
.    Trial2    0.673657    -3650.78293333750116
. Quadratic    0.354070    -3650.78294497589377    -3650.78294497557454

--------------------------------------------------------------------------------
  Iter                              Commutator    Free_energy(A=E-TS)     DeltaA
#    4                          0.000002068068   -3650.78294497589377  -1.43E-05

Step                       =       0.354070060541
Energy                     =   -3650.782919018718
Entropy (-TS)              =      -0.000025957050
[...]
 C   160 -- C   385       -0.10      5.37000
 C   159 -- C   384       -0.10      5.37000
 C   158 -- C   383       -0.10      5.37000
 C   157 -- C   382       -0.10      5.37000
 C   156 -- C   381       -0.10      5.37000
 C   155 -- C   355       -0.10      5.37000
 C   154 -- C   354       -0.10      5.37000
 C   153 -- C   353       -0.10      5.37000
 C   152 -- C   352       -0.10      5.37000
 C   151 -- C   351       -0.10      5.37000
 C   140 -- C   335       -0.10      5.37000
 C   139 -- C   334       -0.10      5.37000
 C   138 -- C   333       -0.10      5.37000
 C   137 -- C   332       -0.10      5.37000
 C   136 -- C   331       -0.10      5.37000
 C   115 -- C   325       -0.10      5.37000
 C   114 -- C   324       -0.10      5.37000
 C   113 -- C   323       -0.10      5.37000
 C   112 -- C   322       -0.10      5.37000
 C   111 -- C   321       -0.10      5.37000
 C   219 -- C   569       -0.10      5.37202
 C   218 -- C   568       -0.10      5.37202
 C   217 -- C   567       -0.10      5.37202
 C   216 -- C   566       -0.10      5.37202
 C   250 -- C   540       -0.10      5.37202
 C   249 -- C   539       -0.10      5.37202
 C   248 -- C   538       -0.10      5.37202
 C   247 -- C   537       -0.10      5.37202
 C   246 -- C   536       -0.10      5.37202
 C   220 -- C   570       -0.10      5.37202
 C   285 -- C   580       -0.10      5.37202
 C   284 -- C   579       -0.10      5.37202
 C   283 -- C   578       -0.10      5.37202
 C   282 -- C   577       -0.10      5.37202
 C   281 -- C   576       -0.10      5.37202
 C   260 -- C   605       -0.10      5.37202
 C   259 -- C   604       -0.10      5.37202
 C   258 -- C   603       -0.10      5.37202
 C   257 -- C   602       -0.10      5.37202
 C   256 -- C   601       -0.10      5.37202
 C   220 -- C   515       -0.10      5.37202
 C   219 -- C   514       -0.10      5.37202
 C   218 -- C   513       -0.10      5.37202
 C   217 -- C   512       -0.10      5.37202
 C   216 -- C   511       -0.10      5.37202
 C   195 -- C   540       -0.10      5.37202
 C   195 -- C   500       -0.10      5.37202
 C   194 -- C   539       -0.10      5.37202
 C   194 -- C   499       -0.10      5.37202
 C   193 -- C   538       -0.10      5.37202
 C   193 -- C   498       -0.10      5.37202
 C   192 -- C   537       -0.10      5.37202
 C   192 -- C   497       -0.10      5.37202
 C   191 -- C   536       -0.10      5.37202
 C   191 -- C   496       -0.10      5.37202
 C   180 -- C   515       -0.10      5.37202
 C   179 -- C   514       -0.10      5.37202
 C   178 -- C   513       -0.10      5.37202
 C   177 -- C   512       -0.10      5.37202
 C   176 -- C   511       -0.10      5.37202
 C    11 -- C   331       -0.10      5.37202
 C   205 -- C   550       -0.10      5.37202
 C   204 -- C   549       -0.10      5.37202
 C   203 -- C   548       -0.10      5.37202
 C   202 -- C   547       -0.10      5.37202
 C   201 -- C   546       -0.10      5.37202
 C    95 -- C   425       -0.10      5.37202
 C    95 -- C   365       -0.10      5.37202
 C    94 -- C   424       -0.10      5.37202
 C    94 -- C   364       -0.10      5.37202
 C    93 -- C   423       -0.10      5.37202
 C    93 -- C   363       -0.10      5.37202
 C    92 -- C   422       -0.10      5.37202
 C    92 -- C   362       -0.10      5.37202
 C    91 -- C   421       -0.10      5.37202
 C    91 -- C   361       -0.10      5.37202
 C    40 -- C   365       -0.10      5.37202
 C    39 -- C   364       -0.10      5.37202
 C    38 -- C   363       -0.10      5.37202
 C    37 -- C   362       -0.10      5.37202
 C    36 -- C   361       -0.10      5.37202
 C    15 -- C   335       -0.10      5.37202
 C    65 -- C   395       -0.10      5.37202
 C    65 -- C   345       -0.10      5.37202
 C    64 -- C   394       -0.10      5.37202
 C    64 -- C   344       -0.10      5.37202
 C    63 -- C   393       -0.10      5.37202
 C    30 -- C   355       -0.10      5.37202
 C    63 -- C   343       -0.10      5.37202
 C    62 -- C   392       -0.10      5.37202
 C    30 -- C   325       -0.10      5.37202
 C    14 -- C   334       -0.10      5.37202
 C    62 -- C   342       -0.10      5.37202
 C    61 -- C   391       -0.10      5.37202
 C    29 -- C   354       -0.10      5.37202
 C    61 -- C   341       -0.10      5.37202
 C    29 -- C   324       -0.10      5.37202
 C   260 -- C   550       -0.10      5.37202
 C   259 -- C   549       -0.10      5.37202
 C    28 -- C   353       -0.10      5.37202
 C   258 -- C   548       -0.10      5.37202
 C   257 -- C   547       -0.10      5.37202
 C   256 -- C   546       -0.10      5.37202
 C    28 -- C   323       -0.10      5.37202
 C    27 -- C   352       -0.10      5.37202
 C    13 -- C   333       -0.10      5.37202
 C    27 -- C   322       -0.10      5.37202
 C   120 -- C   395       -0.10      5.37202
 C    26 -- C   351       -0.10      5.37202
 C   119 -- C   394       -0.10      5.37202
 C   118 -- C   393       -0.10      5.37202
 C    55 -- C   335       -0.10      5.37202
 C   117 -- C   392       -0.10      5.37202
 C    26 -- C   321       -0.10      5.37202
 C   116 -- C   391       -0.10      5.37202
 C    54 -- C   334       -0.10      5.37202
 C    12 -- C   332       -0.10      5.37202
 C    53 -- C   333       -0.10      5.37202
 C   230 -- C   580       -0.10      5.37202
 C   230 -- C   525       -0.10      5.37202
 C   229 -- C   579       -0.10      5.37202
 C   229 -- C   524       -0.10      5.37202
 C   228 -- C   578       -0.10      5.37202
 C    52 -- C   332       -0.10      5.37202
 C   228 -- C   523       -0.10      5.37202
 C   227 -- C   577       -0.10      5.37202
 C   227 -- C   522       -0.10      5.37202
 C   226 -- C   576       -0.10      5.37202
 C   226 -- C   521       -0.10      5.37202
 C    51 -- C   331       -0.10      5.37202
 C    23 -- C   478       -0.10      5.37202
 C    49 -- C   469       -0.10      5.37202
 C    48 -- C   468       -0.10      5.37202
 C    47 -- C   467       -0.10      5.37202
 C    22 -- C   477       -0.10      5.37202
 C    46 -- C   466       -0.10      5.37202
 C    21 -- C   476       -0.10      5.37202
 C    85 -- C   355       -0.10      5.37202
 C    84 -- C   354       -0.10      5.37202
 C    83 -- C   353       -0.10      5.37202
 C    82 -- C   352       -0.10      5.37202
 C    81 -- C   351       -0.10      5.37202
 C    55 -- C   385       -0.10      5.37202
 C    54 -- C   384       -0.10      5.37202
 C    25 -- C   480       -0.10      5.37202
 C    53 -- C   383       -0.10      5.37202
 C    52 -- C   382       -0.10      5.37202
 C    51 -- C   381       -0.10      5.37202
 C    24 -- C   479       -0.10      5.37202
 C    50 -- C   470       -0.10      5.37202
 C    24 -- C   449       -0.10      5.37202
 C     6 -- C   416       -0.10      5.37202
 C    23 -- C   448       -0.10      5.37202
 C    22 -- C   447       -0.10      5.37202
 C    10 -- C   470       -0.10      5.37202
 C     5 -- C   450       -0.10      5.37202
 C    21 -- C   446       -0.10      5.37202
 C    10 -- C   420       -0.10      5.37202
 C     9 -- C   469       -0.10      5.37202
 C     9 -- C   419       -0.10      5.37202
 C     8 -- C   468       -0.10      5.37202
 C     4 -- C   449       -0.10      5.37202
 C   150 -- C   440       -0.10      5.37202
 C   149 -- C   439       -0.10      5.37202
 C   148 -- C   438       -0.10      5.37202
 C   147 -- C   437       -0.10      5.37202
 C     8 -- C   418       -0.10      5.37202
 C   146 -- C   436       -0.10      5.37202
 C     2 -- C   447       -0.10      5.37202
 C   135 -- C   460       -0.10      5.37202
 C     7 -- C   467       -0.10      5.37202
 C   134 -- C   459       -0.10      5.37202
 C   133 -- C   458       -0.10      5.37202
 C   132 -- C   457       -0.10      5.37202
 C   131 -- C   456       -0.10      5.37202
 C     7 -- C   417       -0.10      5.37202
 C     1 -- C   446       -0.10      5.37202
 C     6 -- C   466       -0.10      5.37202
 C    25 -- C   450       -0.10      5.37202
 C     3 -- C   448       -0.10      5.37202
 C   106 -- C   436       -0.10      5.37202
 C   106 -- C   376       -0.10      5.37202
 C    80 -- C   410       -0.10      5.37202
 C    79 -- C   409       -0.10      5.37202
 C    78 -- C   408       -0.10      5.37202
 C    77 -- C   407       -0.10      5.37202
 C    76 -- C   406       -0.10      5.37202
 C   135 -- C   410       -0.10      5.37202
 C   134 -- C   409       -0.10      5.37202
 C   133 -- C   408       -0.10      5.37202
 C   132 -- C   407       -0.10      5.37202
 C   131 -- C   406       -0.10      5.37202
 C   110 -- C   440       -0.10      5.37202
 C   110 -- C   380       -0.10      5.37202
 C   109 -- C   439       -0.10      5.37202
 C   109 -- C   379       -0.10      5.37202
 C   108 -- C   438       -0.10      5.37202
 C   108 -- C   378       -0.10      5.37202
 C   107 -- C   437       -0.10      5.37202
 C   107 -- C   377       -0.10      5.37202
 C   215 -- C   635       -0.10      5.38000
 C   214 -- C   634       -0.10      5.38000
 C   213 -- C   633       -0.10      5.38000
 C   212 -- C   632       -0.10      5.38000
 C   211 -- C   631       -0.10      5.38000
 C   190 -- C   620       -0.10      5.38000
 C   189 -- C   619       -0.10      5.38000
 C   188 -- C   618       -0.10      5.38000
 C   187 -- C   617       -0.10      5.38000
 C   186 -- C   616       -0.10      5.38000
 C   175 -- C   595       -0.10      5.38000
 C   174 -- C   594       -0.10      5.38000
 C   173 -- C   593       -0.10      5.38000
 C   172 -- C   592       -0.10      5.38000
 C   171 -- C   591       -0.10      5.38000
 C   245 -- C   640       -0.10      5.38000
 C   244 -- C   639       -0.10      5.38000
 C   243 -- C   638       -0.10      5.38000
 C   242 -- C   637       -0.10      5.38000
 C   241 -- C   636       -0.10      5.38000
==================================================


=================== Orbital energy and occupancy information ===================

      Total number of orbitals:    2560
        Occupancy sum (kernel):    1280.000000001
   Occupancy sum (eigenvalues):    1280.000000001
                 HOMO-LUMO gap:       0.000000507 Eh
                 Mid-gap level:       0.017491496 Eh

                        Orbital | Energy (Eh) | Occupancy
                            1    -0.737172014   1.0000000
                        .......   ...........   .........
                         1272    -0.055489373   0.9999906
                         1273    -0.055484809   0.9999906
                         1274    -0.055482309   0.9999906
                         1275    -0.055481758   0.9999906
                         1276    -0.055148739   0.9999895
                         1277    -0.055148100   0.9999895
                         1278    -0.055143953   0.9999895
                         1279    -0.055142131   0.9999895
                         1280    -0.055141609   0.9999895
                         1281     0.017491242   0.0000104
                        ....... -- gap at 0K -- .........
                         1282     0.017491749   0.0000104
                         1283     0.017495950   0.0000103
                         1284     0.017497760   0.0000103
                         1285     0.017498272   0.0000103
                         1286     0.017745947   0.0000096
                         1287     0.017746394   0.0000096
                         1288     0.017750596   0.0000095
                         1289     0.017752393   0.0000095
                         1290     0.017752911   0.0000095
                         1291     0.017948239   0.0000090
                        .......   ...........   .........
                         2560     0.877352774   0.0000000

================================================================================

===================== Writing canonical molecular orbitals =====================
| Orbital  Energy (eV)  Norm     |
| HOMO      0.47596092  1.000000 | Writing "10.0618_GO_manual_4x64graphite_HOMO.cube" ... done
Writing "10.0618_GO_manual_4x64graphite_HOMO.dx" ... done
| LUMO      0.47597471  1.000000 | Writing "10.0618_GO_manual_4x64graphite_LUMO.cube" ... done
Writing "10.0618_GO_manual_4x64graphite_LUMO.dx" ... done
================================================================================
 
===================== Density of States (DOS) calculation ======================
Writing "10.0618_GO_manual_4x64graphite_DOS.txt" ...  done
================================================================================
 
Writing bands to file "10.0618_GO_manual_4x64graphite.val_bands" ... done
 
================ Projected Density of States (pDOS) calculation ================
 
Constructing AM resolved functions  ...... done
Writing NGWF plot files in formats: CUBE DX ...  done
 
Performing overlap integrals ...  done
 
Computing pDOS weights ...  done
 
All bands spilling parameter =   2.52 %
Occupancy-weighted spilling parameter =   1.03 %
 
 => Outputting data for OptaDOS <=
 
Writing pDOS weights to file "10.0618_GO_manual_4x64graphite.val_pdos_bin" ... done
 
Writing band gradients to file "10.0618_GO_manual_4x64graphite.val_dome_bin" ... done
 
Writing Castep output cell file to "10.0618_GO_manual_4x64graphite-out.cell" ... done
 
 => Computing Gaussian smeared pDOS <= 
Writing "10.0618_GO_manual_4x64graphite_PDOS.txt" ...  done
 
 => Computing Occupancy-weighted Gaussian smeared pDOS <= 
Writing "10.0618_GO_manual_4x64graphite_occ_PDOS.txt" ...  done
  => Band centres: 
 S band centre of group 1:  -15.679469 eV
 P band centre of group 1:   -8.520651 eV
  Band centres done. <=
  => Integrated number of electrons in each AM band: 
 S num electrons of group 1:  577.110846
 P num electrons of group 1: 1956.495917
  Integrated number of electrons done. <=
================================================================================

------------------------------ TIMING INFORMATION ------------------------------
AVERAGE TIME:    1716.639s on     40 node(s)                                    
TOTAL TIME:      1716.641s on     40 node(s)                                    
================= AVERAGE TIMINGS FROM ALL NODES (CUMULATIVE) ==================
|| TAG                                    #calls    cpu time   %total  Gflops ||
|| work_imbalance                       :     1        0.00s   0.000%  ------ ||
|| sparse_set_to_garbage                :   123        0.01s   0.000%  ------ ||
|| paw_tcore_density                    :     1        0.01s   0.000%  ------ ||
|| paw_tcore_hartree_on_grid            :     1        0.01s   0.001%  ------ ||
|| paw_sphere_density_on_grid           :     1        0.01s   0.001%  ------ ||
|| paw_dij_hartree                      :   242        0.03s   0.002%  ------ ||
|| basis_extract_function_from_box      :  1408        0.06s   0.004%  ------ ||
|| paw_species_calc_proj_prec_mat       :     1        0.12s   0.007%  ------ ||
|| pseudo_make_structure_factor         :     1        0.16s   0.009%  ------ ||
|| paw_dataset_init                     :     1        0.18s   0.010%  ------ ||
|| density_init_guess_real              :     1        0.19s   0.011%  ------ ||
|| restart_kernel_write                 :    12        0.52s   0.030%  ------ ||
|| sparse_init                          :     1        0.64s   0.037%  ------ ||
|| ngwfs_initialise_from_radial         :     2        0.67s   0.039%  ------ ||
|| dense_normal_eigensolve              :     1        0.69s   0.040%  ------ ||
|| projectors_init_fftbox_recip         :   111        2.23s   0.130%  ------ ||
|| hartree_on_grid                      :   184        3.22s   0.188%  ------ ||
|| fourier_apply_box_pair               :  2080        3.48s   0.203% 553.812 ||
|| basis_copy_function_to_box           : 17472        3.63s   0.211%  ------ ||
|| augmentation_screen_dij              :   189        4.04s   0.235%  ------ ||
|| sparse_trace                         :  2188        4.98s   0.290%  ------ ||
|| sparse_embed_hotelling_invert_embed  :    21        5.23s   0.305%  ------ ||
|| ngwf_gradient_coeffs                 :    11        5.48s   0.319%  ------ ||
|| sw_init                              :     1        6.74s   0.392%  ------ ||
|| function_ops_brappd_ketppd           :    44       12.85s   0.749%  ------ ||
|| cell_grid_deposit_box_real           : 23728       13.86s   0.808%  ------ ||
|| paw_dij_xc                           :   242       15.99s   0.931%  ------ ||
|| integrals_kinetic                    :    21       17.38s   1.013%  ------ ||
|| aug_nonlocal_mat                     :   231       18.59s   1.083%  ------ ||
|| ewald_calculate_energy               :     1       22.22s   1.294%  ------ ||
|| cell_grid_extract_box_real           :  7324       22.57s   1.315%  ------ ||
|| hamiltonian_energy_components        :     3       23.72s   1.382%  ------ ||
|| projectors_func_ovlp_box             :    22       23.95s   1.395%  ------ ||
|| augmentation_density_on_grid         :   184       24.63s   1.435%  ------ ||
|| density_fftbox_deposit_to_cell       : 11776       28.20s   1.643%  ------ ||
|| fourier_apply_cell_forward           :  5308       29.06s   1.693%  69.203 ||
|| fourier_apply_cell_backward          :  5675       30.69s   1.788%  70.047 ||
|| basis_dot_function_with_box          : 1.467M      41.29s   2.405%  ------ ||
|| eigenstates_pdos                     :     1       43.62s   2.541%  ------ ||
|| integrals_locpot_mat_els_batch       :   224       44.38s   2.585%  ------ ||
|| eigenstates_calculate                :     1       49.91s   2.908%  ------ ||
|| sparse_product                       :  2242       62.62s   3.648%  ------ ||
|| dense_eigensolve                     :   159       68.66s   4.000%  ------ ||
|| potential_apply_to_ngwf_batch        :   224       84.95s   4.949%  ------ ||
|| projectors_gradient_batch            :    44       88.09s   5.131%  ------ ||
|| basis_add_function_to_box            : 3.677M     103.44s   6.026%  ------ ||
|| xc_energy_potential                  :   183      104.54s   6.090%  ------ ||
|| restart_ngwfs_tightbox_output        :    10      117.44s   6.841%  ------ ||
|| properties_calculate                 :     1      119.72s   6.974%  ------ ||
|| density_batch_row_sums               :   736      126.57s   7.373%  ------ ||
|| nlxc_vdw_energy                      :   366      129.00s   7.514%  ------ ||
|| integrals_locpot_dbl_grid            :    56      129.71s   7.556%  ------ ||
|| projectors_grad_precond_batch        :    44      134.25s   7.820%  ------ ||
|| edft_diag_ngwf_ham                   :   158      165.56s   9.645%  ------ ||
|| fourier_apply_box                    : 55360      172.35s  10.040% 970.608 ||
|| density_fftbox_interpolate_multiply  : 11776      226.30s  13.183%  ------ ||
|| ngwf_gradient_build_batch            :    44      256.10s  14.919%  ------ ||
|| density_batch_interp_deposit         :   736      277.57s  16.170%  ------ ||
|| ngwf_gradient_batch                  :    44      301.99s  17.592%  ------ ||
|| ngwf_gradient_lnv                    :    11      317.29s  18.483%  ------ ||
|| edft_apply_smearing_operator         :   158      327.18s  19.059%  ------ ||
|| density_on_dbl_grid                  :   184      413.47s  24.086%  ------ ||
|| hamiltonian_lhxc_calculate           :   179      533.30s  31.067%  ------ ||
|| edft_calculate                       :    11      991.69s  57.769%  ------ ||
|| ngwf_cg_optimise                     :     1     1558.86s  90.809%  ------ ||
|| total_time                           :     1     1716.64s 100.000%  ------ ||
================================================================================
Overhead of generating timer report: 
- 0 ms averaging over threads,
- 5 ms ensuring consistency across MPI ranks,
- 0 ms printing in order.

Job completed: 10-03-2020 15:07 (-0000)

