 +---------------------------------------------------------------+
 |                                                               |
 |        ####### #     # ####### ####### ####### ######         |
 |        #     # ##    # #          #    #       #     #        |
 |        #     # # #   # #          #    #       #     #        |
 |        #     # #  #  # #####      #    #####   ######         |
 |        #     # #   # # #          #    #       #              |
 |        #     # #    ## #          #    #       #              |
 |        ####### #     # #######    #    ####### #              |
 |                                                               |
 |        Linear-Scaling Ab Initio Total Energy Program          |
 |                                                               |
 |          Release for academic collaborators of ODG            |
 |                                             Version 5.3.2.12  |
 |                                                               |
 +---------------------------------------------------------------+
 |                                                               |
 |  Authors:                                                     |
 |  Jacek Dziedzic, Peter D. Haynes, Nicholas D. M. Hine,        |
 |  Arash. A. Mostofi, Mike C. Payne and Chris-Kriton Skylaris   |
 |                                                               |
 |  Contributors:                                                |
 |  J. Aarons, L. Andrinopoulos, P. W. Avraam, R. A. Bell,       |
 |  A. Bhandari, G. A. Bramley, R. J. Charlton, S. J. Clark,     |
 |  R. J. Clements, G. C. Constantinescu, F. Corsetti,           |
 |  N. Corsini, O. Dieguez, S. M. M. Dubois, K. K. B. Duff,      |
 |  J. M. Escartin, A. Greco, H. Helal, Q. O. Hill, L. P. Lee,   |
 |  J.-H. Li, E. B. Linscott, G. Moynihan, D. D. O`Regan,        |
 |  O. K. Okan, M. J. S. Phipps, C. J. Pickard,                  |
 |  J. C. A. Prentice, M. I. J. Probert, L. E. Ratcliff,         |
 |  M. Robinson, A. Ruiz Serrano, J. S. Spencer, E. W. Tait,     |
 |  G. Teobaldi, D. Turban, V. Vitale, K. A. Wilkinson,          |
 |  C. Weber, J. C. Womack, N. Yeung and T. J. Zuehlsdorff       |
 |                                                               |
 |                                   Copyright (c) 2004-2020     |
 |                                                               |
 |  Please cite:                                                 |
 |  "Introducing ONETEP: Linear-scaling density functional       |
 |   simulations on parallel computers".                         |
 |   C.-K. Skylaris, P. D. Haynes, A. A. Mostofi, M. C. Payne.   |
 |   J. Chem. Phys. 122 084119 (2005).                           |
 |                                                               |
 |          in all publications arising from your use of ONETEP. |
 |                                                               |
 +---------------------------------------------------------------+
 |                                                               |
 |   ONETEP is based on developments described in the following  |
 |   publications:                                               |
 |                                                               |
 |  "Nonorthogonal generalized Wannier function pseudopotential  |
 |   plane-wave method".                                         |
 |   C.-K. Skylaris, A. A. Mostofi, P. D. Haynes, O. Dieguez,    |
 |   M. C. Payne.                                                |
 |   Phys. Rev. B 66 035119 (2002).                              |
 |                                                               |
 |  "Preconditioned iterative minimization for linear-scaling    |
 |   electronic structure calculations".                         |
 |   A. A. Mostofi, P. D. Haynes, C.-K. Skylaris, M. C. Payne.   |
 |   J. Chem. Phys. 119(17), pp.8842-8848 (2003).                |
 |                                                               |
 |  "Total-energy calculations on a real space grid with         |
 |   localized functions and a plane-wave basis".                |
 |   A. A. Mostofi, C.-K. Skylaris, P. D. Haynes, M. C. Payne.   |
 |   Comput. Phys. Commun. 147, pp.788-802 (2002).               |
 |                                                               |
 |  "Accurate kinetic energy evaluation in electronic structure  |
 |   calculations with localized functions on real space grids"  |
 |   C.-K. Skylaris, A. A. Mostofi, P. D. Haynes, C. J. Pickard, |
 |   M. C. Payne.                                                |
 |   Comput. Phys. Commun. 140, pp.315-322 (2001).               |
 |                                                               |
 |  "Accurate ionic forces and geometry optimization in linear-  |
 |   scaling density-functional theory with local orbitals"      |
 |   N. D. M. Hine, M. Robinson, P. D. Haynes, C.-K. Skylaris,   |
 |   M. C. Payne, and A. A. Mostofi.                             |
 |   Phys. Rev. B 83 195102 (2011).                              |
 |                                                               |
 +---------------------------------------------------------------+

Job started: 15-07-2020 19:02 (+0100)
 
Reading parameters from file "34/592nano.dat" ...... done

If your calculation crashes here, before "Checking processes and threads..."
is displayed, then your stack size is insufficient.
If so, use "ulimit -s unlimited" at runtime.
You can disable this check with "check_stack_size F".

Checking processes and threads...
   Determining the default number of threads...
      No default threads set at compilation time: defaulting to 1.
      OpenMP library call suggests 4 threads.
      Hybrid MPI-OpenMP compilation detected.
      Number of MPI processes > 1.
      OMP_NUM_THREADS environment variable present and
      its value matches the one obtained from the OpenMP library call.
      Using this value as default.
      Default threads: 4
      Default applies to threads_max and threads_num_fftboxes.
      Settings in the input file override this default.
   ... done

   Running with 320 MPI processes.
   There are 10 MPI processes running on the same node as the root process.
   Each MPI process is using: 
               1 threads for simulation cell FFTs.
               1 threads for parallel FFT box operations.
               4 threads for loops over batched FFT box operations.
               4 threads in other parallel regions.
... done

Basic input checks...
Resetting ngwf_cg_rotate to TRUE for EDFT calculations
... done

Reading geometry and species blocks from file "34/592nano.dat" ...    
  Number of PPD points along a3 set to 1.  This is 
  the default value, it may have been provided also in the input file.
... done
 Writing xyz coordinates to file "34/592nano.xyz" ... done


--------------------------------------------------------------------------------
---------------------------------- INPUT FILE ----------------------------------
--------------------------------------------------------------------------------

task : singlepoint                                                              
ddec_classical_hirshfeld T                                                      
do_properties : true                                                            
dx_format T                                                                     
edft T                                                                          
output_detail VERBOSE                                                           
write_xyz T                                                                     
dispersion 4                                                                    
xc_functional PBE                                                               
cutoff_energy 830 eV                                                            
paw T                                                                           
geom_disp_tol 0.015 bohr                                                        
geom_energy_tol 1.5E-6 hartree                                                  
geom_force_tol 0.01 "ha/bohr"                                                   
%BLOCK SPECIES_LDOS_GROUPS                                                      
C                                                                               
H                                                                               
Li                                                                              
%ENDBLOCK SPECIES_LDOS_GROUPS                                                   
EDFT_MAXIT 30                                                                   
pdos_max_l = 2                                                                  
dos_smear  0.1 eV                                                               
popn_calculate T                                                                
PDOS_PSEUDOATOMIC T                                                             
PDOS_REDUCE_SWS F                                                               
PDOS_CONSTRUCT_BASIS F                                                          
PDOS_LOWDIN T                                                                   
PDOS_ORTH_ATOM_BLOCKS F                                                         
PDOS_LCAO_OPTIMIZE F                                                            
pdos_optados_output T                                                           
homo_plot 0                                                                     
lumo_plot 0                                                                     
homo_dens_plot -1                                                               
lumo_dens_plot -1                                                               
%BLOCK SPECIES                                                                  
C C 6 4 9.0                                                                     
H H 1 1 9.0                                                                     
Li Li 3 5 9.0                                                                   
%ENDBLOCK SPECIES                                                               
%BLOCK SPECIES_POT                                                              
C "~/pp/paw/c_pbe_abinit.paw"                                                   
H "~/pp/paw/h_pbe_abinit.paw"                                                   
Li "~/pp/paw/li_pbe_abinit.paw"                                                 
%ENDBLOCK SPECIES_POT                                                           
%BLOCK SPECIES_ATOMIC_SET                                                       
C "SOLVE conf=2s2 2p2"                                                          
H "SOLVE conf=1s1"                                                              
Li "SOLVE conf=1s2 2s1 2p0"                                                     
%ENDBLOCK SPECIES_ATOMIC_SET                                                    
%BLOCK LATTICE_CART                                                             
94.486315650000      0.000000000000       0.000000000000                        
0.000000000000       94.486315650000      0.000000000000                        
0.000000000000       0.000000000000       94.486315650000                       
%ENDBLOCK LATTICE_CART                                                          
%BLOCK POSITIONS_ABS                                                            
C 45.520337 50.727459 30.641410                                                 
C 45.411145 50.547429 36.784713                                                 
C 46.872673 53.064883 30.638585                                                 
C 48.107560 50.539764 36.791224                                                 
C 49.574874 48.394586 30.652519                                                 
C 49.455032 48.200500 36.776885                                                 
C 50.929619 50.728684 30.647925                                                 
C 52.152195 48.190073 36.797235                                                 
C 45.517628 55.398417 30.555166                                                 
C 45.418101 55.211876 36.760847                                                 
C 46.869292 57.732679 30.454445                                                 
C 48.115395 55.207290 36.785033                                                 
C 49.575531 53.066656 30.638221                                                 
C 49.457961 52.873035 36.806212                                                 
C 50.925995 55.397761 30.530285                                                 
C 52.156812 52.869727 36.842406                                                 
C 45.398704 50.530928 42.987108                                                 
C 45.422754 50.447739 49.122820                                                 
C 46.749841 52.865151 42.983568                                                 
C 48.123091 50.461204 49.132847                                                 
C 49.441065 48.186090 42.996949                                                 
C 49.483157 48.129992 49.207205                                                 
C 50.793405 50.520834 43.004455                                                 
C 52.179848 48.143410 49.335594                                                 
C 45.405777 55.201168 42.977007                                                 
C 45.403129 55.122154 49.198261                                                 
C 46.753304 57.534007 42.972093                                                 
C 48.102468 55.141744 49.186592                                                 
C 49.447249 52.856943 42.995374                                                 
C 49.460551 52.807395 49.154633                                                 
C 50.799117 55.189185 42.988763                                                 
C 52.153650 52.823941 49.263461                                                 
C 57.668934 48.371241 30.194451                                                 
C 57.528379 48.169343 36.969558                                                 
C 59.027127 50.693510 30.076642                                                 
C 60.252085 48.158971 37.145642                                                 
C 57.541117 48.178776 42.929238                                                 
C 57.539114 48.174900 49.877987                                                 
C 58.898956 50.520725 42.889204                                                 
C 60.264273 48.191745 50.184190                                                 
C 53.629122 50.723788 30.554122                                                 
C 53.500868 50.527756 36.848719                                                 
C 54.984767 53.059814 30.460001                                                 
C 56.191594 50.520535 36.939078                                                 
C 53.493236 50.517251 43.001046                                                 
C 53.512179 50.490336 49.376163                                                 
C 54.839566 52.851646 42.984492                                                 
C 56.203342 50.505610 49.646454                                                 
C 57.662241 43.697380 30.266753                                                 
C 57.540251 43.508392 36.633146                                                 
C 59.002599 46.006805 30.041148                                                 
C 60.238842 43.516024 36.730364                                                 
C 57.532707 43.510616 42.821428                                                 
C 57.586803 43.498115 49.963676                                                 
C 58.897542 45.827261 42.848845                                                 
C 60.301165 43.530013 50.207119                                                 
C 53.622302 46.057405 30.522474                                                 
C 53.494692 45.856539 36.745671                                                 
C 54.971477 48.384568 30.461625                                                 
C 56.193168 45.851285 36.795865                                                 
C 53.484020 45.851105 42.977760                                                 
C 53.535141 45.810188 49.509814                                                 
C 54.841924 48.181700 42.979676                                                 
C 56.221313 45.831461 49.766068                                                 
C 57.680048 57.734378 30.227395                                                 
C 57.557165 57.534742 37.016103                                                 
C 59.033727 60.123760 30.199151                                                 
C 60.253783 57.526369 37.042223                                                 
C 57.546311 57.522505 42.937473                                                 
C 57.535631 57.534018 49.511994                                                 
C 58.897629 59.852277 42.963885                                                 
C 60.280432 57.517725 49.566647                                                 
C 45.499982 64.739638 30.169435                                                 
C 45.439828 64.554161 36.590618                                                 
C 46.885726 67.101795 30.122017                                                 
C 48.109726 64.565408 36.858843                                                 
C 49.548421 62.386032 30.010318                                                 
C 49.472182 62.214232 36.880908                                                 
C 50.908795 64.757415 29.737068                                                 
C 52.174232 62.217099 36.988584                                                 
C 45.418899 64.553945 42.989273                                                 
C 45.351721 64.427137 50.178501                                                 
C 46.794360 66.903060 42.919407                                                 
C 48.036492 64.467508 50.105017                                                 
C 49.450038 62.192055 42.858421                                                 
C 49.420213 62.146678 49.792861                                                 
C 50.812654 64.560305 42.719065                                                 
C 52.116873 62.178779 49.772374                                                 
C 53.613947 60.051820 30.071624                                                 
C 53.515601 59.873243 36.980455                                                 
C 54.978357 62.419302 29.798248                                                 
C 56.230357 59.863448 37.075166                                                 
C 53.498203 59.830276 42.890012                                                 
C 53.477398 59.855882 49.538614                                                 
C 54.864451 62.177143 42.780658                                                 
C 56.184998 59.871087 49.560092                                                 
C 57.682238 53.048476 30.245811                                                 
C 57.529694 52.866335 37.023658                                                 
C 59.036766 55.397146 30.151862                                                 
C 60.256406 52.866328 37.189319                                                 
C 57.543156 52.853717 42.903206                                                 
C 57.527785 52.858297 49.732708                                                 
C 58.893778 55.207032 42.850044                                                 
C 60.253858 52.873492 50.032219                                                 
C 45.508688 60.067190 30.327234                                                 
C 45.432480 59.877006 36.693773                                                 
C 46.859617 62.392331 30.166490                                                 
C 48.128292 59.878508 36.781023                                                 
C 49.568467 57.732608 30.421589                                                 
C 49.471296 57.543620 36.807506                                                 
C 50.915102 60.066881 30.173701                                                 
C 52.161573 57.540142 36.874846                                                 
C 45.410525 59.871516 42.982824                                                 
C 45.383201 59.783282 49.567008                                                 
C 46.764634 62.203056 42.942236                                                 
C 48.075551 59.805304 49.524983                                                 
C 49.450862 57.526136 42.968189                                                 
C 49.439338 57.486563 49.317672                                                 
C 50.800609 59.856828 42.915553                                                 
C 52.143271 57.510102 49.355712                                                 
C 53.630504 55.393892 30.450248                                                 
C 53.501767 55.198941 36.889371                                                 
C 54.969810 57.731864 30.258241                                                 
C 56.199924 55.194648 36.966369                                                 
C 53.494130 55.182234 42.981752                                                 
C 53.493640 55.174917 49.338154                                                 
C 54.842456 57.518988 42.949739                                                 
C 56.187704 55.181223 49.515515                                                 
H 27.294681 41.353251 29.585641                                                 
H 28.233020 39.443146 36.709783                                                 
H 27.167676 41.256401 42.587921                                                 
H 28.301996 39.275893 50.632046                                                 
H 41.880788 30.287182 29.619807                                                 
C 42.929502 32.070128 29.633158                                                 
H 44.424238 30.102749 36.827822                                                 
H 41.685403 30.072965 42.836037                                                 
C 42.721594 31.862008 42.925149                                                 
H 44.496573 29.986557 49.604415                                                 
H 29.641855 37.256313 29.508939                                                 
C 30.682149 39.039873 29.586633                                                 
H 32.256325 37.119574 36.963802                                                 
H 33.756426 34.873400 29.517907                                                 
C 34.777015 36.668192 29.588720                                                 
H 29.468832 37.186105 43.021301                                                 
C 30.517584 38.967215 42.986494                                                 
H 32.389884 36.958033 50.711067                                                 
H 33.523283 34.770695 43.103958                                                 
C 34.566816 36.553121 43.116571                                                 
H 37.848769 32.586739 29.398878                                                 
C 38.860596 34.390052 29.448013                                                 
H 40.366861 32.427793 37.089764                                                 
H 37.619032 32.398531 42.902763                                                 
C 38.638592 34.196763 42.930458                                                 
H 40.431593 32.321912 50.166802                                                 
H 46.547334 30.289869 30.017038                                                 
H 46.371820 30.103488 43.164218                                                 
H 25.806193 48.160892 36.585139                                                 
C 27.872438 48.196596 36.638893                                                 
H 25.829078 48.012467 50.084911                                                 
C 27.895310 48.032489 50.048082                                                 
H 25.861014 43.483201 36.685755                                                 
H 27.297311 46.068367 29.443494                                                 
C 27.929116 43.490772 36.732224                                                 
H 25.902696 43.296017 50.234813                                                 
H 27.178562 45.951677 42.570796                                                 
C 27.969962 43.321038 50.221738                                                 
H 25.845425 57.688134 36.808185                                                 
H 27.284334 60.039010 29.172074                                                 
C 27.913465 57.661737 36.803571                                                 
H 25.813326 57.412384 49.529921                                                 
H 27.213194 59.880116 43.281609                                                 
C 27.879468 57.409218 49.596436                                                 
H 25.773635 52.936057 36.219198                                                 
H 27.301257 55.334255 29.313517                                                 
C 27.834165 52.926309 36.329994                                                 
H 25.804340 52.706124 49.849666                                                 
H 27.226301 55.234526 43.650921                                                 
C 27.872863 52.706678 49.829318                                                 
C 29.360878 41.346765 29.636122                                                 
C 29.245488 41.247356 36.743178                                                 
C 30.642675 43.704907 29.699811                                                 
C 31.931644 41.190961 36.827130                                                 
C 33.374809 38.951729 29.644247                                                 
C 33.293973 38.908644 36.917074                                                 
C 34.737916 41.351609 29.809466                                                 
C 35.953211 38.852503 37.099903                                                 
C 29.363702 46.057686 29.539276                                                 
C 29.193471 45.859872 36.793241                                                 
C 30.675957 48.370341 29.449144                                                 
C 31.912457 45.859431 36.830090                                                 
C 33.387630 43.690668 29.835671                                                 
C 33.267023 43.543259 36.844561                                                 
C 34.741878 46.040402 29.923333                                                 
C 35.969565 43.548026 36.867503                                                 
C 29.228813 41.243087 42.726753                                                 
C 29.313589 41.070639 50.463861                                                 
C 30.526633 43.597206 42.696456                                                 
C 32.001779 41.030159 50.439473                                                 
C 33.203057 38.859212 43.029235                                                 
C 33.405146 38.750848 50.521862                                                 
C 34.564305 41.225712 43.019305                                                 
C 36.057495 38.734901 50.467273                                                 
C 29.242589 45.944548 42.700329                                                 
C 29.213133 45.705226 50.115548                                                 
C 30.542869 48.257225 42.778286                                                 
C 31.949087 45.710977 49.995329                                                 
C 33.241209 43.563521 42.900052                                                 
C 33.324208 43.399431 50.120348                                                 
C 34.605452 45.901980 42.958917                                                 
C 36.028749 43.412098 49.936147                                                 
C 41.504675 39.051653 29.795801                                                 
C 41.371902 38.880965 36.917095                                                 
C 42.843107 41.389604 30.110645                                                 
C 44.062837 38.877340 36.789605                                                 
C 41.321774 38.861592 43.017876                                                 
C 41.462170 38.771376 49.961209                                                 
C 42.677343 41.199777 43.067571                                                 
C 44.139849 38.772870 49.711946                                                 
C 37.453352 41.358846 29.906715                                                 
C 37.315514 41.228376 36.955000                                                 
C 38.785472 43.703008 30.138941                                                 
C 40.016267 41.217913 36.887782                                                 
C 37.281006 41.210882 43.075107                                                 
C 37.399180 41.104246 50.106167                                                 
C 38.639033 43.543516 43.068866                                                 
C 40.087591 41.091760 49.859091                                                 
C 41.516734 34.368840 29.492291                                                 
C 41.388407 34.222777 37.008547                                                 
C 42.883044 36.721512 29.586203                                                 
C 44.057206 34.181573 36.851811                                                 
C 41.315027 34.156554 42.869758                                                 
C 41.464887 34.111932 50.073472                                                 
C 42.681824 36.510348 42.963381                                                 
C 44.127778 34.063555 49.769523                                                 
C 37.460606 36.643488 29.529253                                                 
C 37.329970 36.564699 37.017514                                                 
C 38.820688 39.023593 29.731070                                                 
C 39.997200 36.504485 37.018115                                                 
C 37.242437 36.477336 43.000271                                                 
C 37.441140 36.449057 50.291950                                                 
C 38.623249 38.860980 43.045894                                                 
C 40.112955 36.396169 50.268952                                                 
C 41.470758 48.387968 30.474721                                                 
C 41.359755 48.222207 36.781618                                                 
C 42.818095 50.726291 30.558793                                                 
C 44.060290 48.213280 36.777897                                                 
C 41.352104 48.207112 43.016195                                                 
C 41.383534 48.091171 49.266206                                                 
C 42.703038 50.538632 42.993948                                                 
C 44.083029 48.104717 49.188623                                                 
C 29.369249 55.357654 29.406533                                                 
C 29.154413 55.307415 36.603932                                                 
C 30.649242 57.710077 29.414756                                                 
C 31.898681 55.283775 36.783331                                                 
C 33.410286 53.058035 29.674345                                                 
C 33.248965 52.913994 36.738124                                                 
C 34.730938 55.395900 29.824807                                                 
C 35.954048 52.907715 36.766790                                                 
C 29.297323 55.235570 43.551686                                                 
C 29.157803 55.030698 49.647448                                                 
C 30.582067 57.562983 43.357365                                                 
C 31.899391 55.060161 49.612739                                                 
C 33.300308 52.908297 43.288337                                                 
C 33.260511 52.722331 49.605675                                                 
C 34.632562 55.227521 43.209354                                                 
C 35.961068 52.737241 49.460643                                                 
C 37.427492 50.722442 30.196616                                                 
C 37.306417 50.566240 36.768179                                                 
C 38.769030 53.063072 30.283068                                                 
C 40.007473 50.560058 36.776326                                                 
C 37.317921 50.554669 43.059879                                                 
C 37.322670 50.409437 49.399563                                                 
C 38.669471 52.888131 43.049815                                                 
C 40.021822 50.421608 49.265640                                                 
C 41.485432 43.713881 30.259904                                                 
C 41.364767 43.550609 36.809191                                                 
C 42.825713 46.051085 30.454179                                                 
C 44.064916 43.543920 36.760014                                                 
C 41.334394 43.536747 43.062545                                                 
C 41.415945 43.428197 49.542647                                                 
C 42.692255 45.869221 43.033391                                                 
C 44.112862 43.440094 49.418509                                                 
C 29.393169 50.710172 29.516770                                                 
C 29.123622 50.543563 36.548074                                                 
C 30.681025 53.051478 29.362198                                                 
C 31.891139 50.555694 36.692475                                                 
C 33.408507 48.372300 29.749831                                                 
C 33.252557 48.225433 36.789570                                                 
C 34.737500 50.719089 29.890899                                                 
C 35.961978 48.226672 36.783617                                                 
C 29.268412 50.579017 43.212055                                                 
C 29.166706 50.395698 49.949163                                                 
C 30.585007 52.907939 43.531346                                                 
C 31.919422 50.401897 49.789875                                                 
C 33.278491 48.234803 42.943462                                                 
C 33.285876 48.069526 49.780198                                                 
C 34.625686 50.563949 43.103600                                                 
C 35.985665 48.070877 49.565251                                                 
C 37.435015 46.037232 30.156309                                                 
C 37.312917 45.894541 36.813208                                                 
C 38.777018 48.383171 30.304338                                                 
C 40.011346 45.889597 36.800054                                                 
C 37.301988 45.885583 43.038958                                                 
C 37.349084 45.747135 49.615663                                                 
C 38.657114 48.213550 43.032000                                                 
C 40.047929 45.753657 49.448797                                                 
C 45.512376 32.072565 29.857058                                                 
C 45.460845 31.885438 36.699804                                                 
C 46.923757 34.372196 29.954594                                                 
C 48.035377 31.883296 36.394194                                                 
H 49.075306 30.101399 36.277938                                                 
H 50.577155 32.596713 30.244255                                                 
C 45.558214 36.718258 29.883883                                                 
C 45.418283 36.526312 36.703637                                                 
C 46.887296 39.052303 30.153981                                                 
C 48.087149 36.522888 36.394266                                                 
C 49.557049 34.392708 30.155665                                                 
C 49.442267 34.173179 36.220558                                                 
C 50.940946 36.659879 30.285473                                                 
C 52.113771 34.199938 36.055407                                                 
C 45.313359 31.880047 43.114140                                                 
C 45.533462 31.774353 49.623818                                                 
C 46.690316 34.178394 43.246417                                                 
C 48.177925 31.774533 49.546181                                                 
H 49.207874 29.984039 49.475409                                                 
H 50.325462 32.389749 43.550690                                                 
C 45.357070 36.518573 43.129761                                                 
C 45.506179 36.429181 49.670706                                                 
C 46.709315 38.855489 43.162179                                                 
C 48.200639 36.434286 49.602694                                                 
C 49.342806 34.209218 43.449567                                                 
C 49.595303 34.070499 49.612078                                                 
C 50.725403 36.472067 43.423229                                                 
C 52.248780 34.121813 49.786631                                                 
H 53.125889 32.398396 35.956568                                                 
H 53.287086 32.333310 49.800648                                                 
C 57.663261 39.073572 30.378342                                                 
C 57.567466 38.858127 36.012132                                                 
C 59.007895 41.347481 30.276856                                                 
C 60.246474 38.920432 36.261943                                                 
C 57.486055 38.857333 42.956966                                                 
C 57.638602 38.788861 50.099468                                                 
C 58.879105 41.153969 42.662217                                                 
C 60.320688 38.892136 50.130272                                                 
C 45.523642 46.056564 30.540149                                                 
C 45.410834 45.880018 36.758135                                                 
C 46.874142 48.392581 30.639196                                                 
C 48.108706 45.870788 36.744934                                                 
C 49.571787 43.725920 30.528385                                                 
C 49.458873 43.531742 36.667664                                                 
C 50.925702 46.058594 30.597928                                                 
C 52.154773 43.520390 36.624279                                                 
C 45.388984 45.860814 43.020881                                                 
C 45.447197 45.777143 49.254481                                                 
C 46.743250 48.191896 42.999072                                                 
C 48.146365 45.786869 49.254529                                                 
C 49.423906 43.518388 43.026223                                                 
C 49.506497 43.455515 49.389617                                                 
C 50.783081 45.852006 42.993079                                                 
C 52.199879 43.467535 49.522310                                                 
C 53.636035 41.389436 30.477978                                                 
C 53.503139 41.190078 36.400707                                                 
C 54.974154 43.715539 30.440640                                                 
C 56.212021 41.190805 36.349425                                                 
C 53.453743 41.201769 42.997919                                                 
C 53.552815 41.135078 49.767246                                                 
C 54.822177 43.519102 42.945314                                                 
C 56.267788 41.156892 49.951991                                                 
H 57.231301 34.764794 35.725090                                                 
H 58.701390 37.288049 30.460785                                                 
H 57.330844 34.699486 50.055998                                                 
H 58.519541 37.058482 42.888749                                                 
C 45.532532 41.392882 30.246419                                                 
C 45.415097 41.215309 36.708878                                                 
C 46.873891 43.722036 30.463013                                                 
C 48.108880 41.205988 36.607233                                                 
C 49.564142 39.039332 30.334364                                                 
C 49.451125 38.870602 36.396943                                                 
C 50.921968 41.386407 30.478717                                                 
C 52.151665 38.861931 36.239749                                                 
C 45.369612 41.195739 43.081889                                                 
C 45.476322 41.106439 49.504583                                                 
C 46.728147 43.522111 43.047032                                                 
C 48.171945 41.111921 49.473180                                                 
C 49.391196 38.848983 43.223691                                                 
C 49.536952 38.783408 49.605421                                                 
C 50.759632 41.180742 43.078459                                                 
C 52.218405 38.784080 49.785322                                                 
C 53.619779 36.718917 30.262560                                                 
C 53.515726 36.484038 35.971538                                                 
C 55.009723 39.010810 30.407696                                                 
C 56.190582 36.553557 35.788121                                                 
C 53.425135 36.523722 43.095984                                                 
C 53.599948 36.400332 49.934324                                                 
C 54.803268 38.834570 42.981078                                                 
C 56.280267 36.479819 50.042351                                                 
H 61.292155 37.133417 36.182300                                                 
H 62.720715 39.618534 30.332589                                                 
H 61.370104 37.111086 50.153042                                                 
H 62.548055 39.412708 42.307431                                                 
H 28.244933 61.707666 37.318970                                                 
H 28.168072 61.487429 49.690119                                                 
C 29.353774 60.058639 29.239354                                                 
C 29.258082 59.915032 37.110380                                                 
C 30.659951 62.360085 29.338079                                                 
C 31.945044 59.960811 37.055071                                                 
C 33.369741 57.733118 29.641843                                                 
C 33.270796 57.594407 36.902766                                                 
C 34.706484 60.061833 29.636432                                                 
C 35.981520 57.585955 36.824795                                                 
H 29.629366 64.150473 29.242436                                                 
H 32.318738 64.046856 36.968204                                                 
C 33.350586 62.440085 29.443315                                                 
C 33.331834 62.246869 36.837721                                                 
C 34.735975 64.730642 29.489048                                                 
C 36.004209 62.283208 36.829946                                                 
C 29.281709 59.908082 43.259648                                                 
C 29.197011 59.694964 49.691011                                                 
C 30.561081 62.168978 43.139152                                                 
C 31.890391 59.769464 49.834676                                                 
C 33.277400 57.565826 43.219934                                                 
C 33.244253 57.391931 49.694421                                                 
C 34.603347 59.891196 43.075616                                                 
C 35.957445 57.401034 49.709090                                                 
H 29.525592 63.959786 43.097039                                                 
H 32.224676 63.825487 50.281165                                                 
C 33.246582 62.248679 43.089107                                                 
C 33.258147 62.036823 50.172967                                                 
C 34.609318 64.551934 43.218340                                                 
C 35.923941 62.070316 50.352743                                                 
C 41.461223 57.733304 30.307935                                                 
C 41.378802 57.555379 36.714730                                                 
C 42.808840 60.068838 30.267906                                                 
C 44.076163 57.550976 36.713995                                                 
C 41.365769 57.549011 43.001827                                                 
C 41.347025 57.427931 49.479792                                                 
C 42.713551 59.884051 43.021046                                                 
C 44.044203 57.448158 49.376860                                                 
C 37.423867 60.071108 29.849647                                                 
C 37.343762 59.898046 36.769934                                                 
C 38.775522 62.409052 29.855820                                                 
C 40.040876 59.892634 36.636708                                                 
C 37.319340 59.895844 43.039588                                                 
C 37.298361 59.714839 49.966367                                                 
C 38.662667 62.232204 43.131394                                                 
C 39.991714 59.745550 49.801072                                                 
C 41.466268 53.063293 30.471702                                                 
C 41.361217 52.892028 36.773410                                                 
C 42.815734 55.398320 30.474523                                                 
C 44.061997 52.885507 36.776001                                                 
C 41.362529 52.878780 42.998957                                                 
C 41.363050 52.762875 49.223483                                                 
C 42.711509 55.209762 42.984367                                                 
C 44.063014 52.779527 49.150916                                                 
C 37.420107 55.401425 30.100308                                                 
C 37.315483 55.236170 36.777093                                                 
C 38.768172 57.733717 30.112906                                                 
C 40.014881 55.225341 36.761964                                                 
C 37.328518 55.223494 43.076680                                                 
C 37.305760 55.074030 49.473807                                                 
C 38.673326 57.553977 43.031647                                                 
C 40.005557 55.089713 49.367489                                                 
C 41.411523 67.107985 30.119759                                                 
C 41.436533 66.838199 36.131729                                                 
C 42.833143 69.399954 30.256431                                                 
C 44.089990 66.887426 36.402278                                                 
C 41.354891 66.943295 43.329024                                                 
C 41.305745 66.697966 50.446416                                                 
C 42.782663 69.226762 43.235656                                                 
C 43.963615 66.750092 50.517543                                                 
H 37.733964 68.856886 29.831368                                                 
H 40.412503 68.627514 35.954958                                                 
H 37.654199 68.700153 43.551443                                                 
H 40.264730 68.477812 50.615540                                                 
C 41.453860 62.400000 30.100249                                                 
C 41.411327 62.208605 36.435502                                                 
C 42.804027 64.742482 30.158194                                                 
C 44.093992 62.211993 36.552678                                                 
C 41.367631 62.219115 43.131485                                                 
C 41.334353 62.073638 49.996466                                                 
C 42.731849 64.569614 43.166423                                                 
C 44.011212 62.093529 49.893545                                                 
H 33.706743 66.521705 29.411472                                                 
H 33.557033 66.326905 43.336301                                                 
C 37.408214 64.792895 29.676541                                                 
C 37.378232 64.540122 36.401211                                                 
C 38.764416 67.064740 29.860954                                                 
C 40.064201 64.567650 36.133812                                                 
C 37.277760 64.625747 43.268962                                                 
C 37.296329 64.349373 50.395691                                                 
C 38.674997 66.909028 43.420326                                                 
C 39.953576 64.415119 50.291431                                                 
C 61.699928 41.409429 30.177132                                                 
C 61.525134 41.168149 36.586200                                                 
C 62.997969 43.638260 29.896538                                                 
H 63.585408 41.175063 36.740457                                                 
C 61.709220 46.000380 29.765113                                                 
C 61.530043 45.831855 37.011094                                                 
C 63.020688 48.334140 29.612484                                                 
H 63.593256 45.829149 37.150866                                                 
H 65.064734 43.648086 29.814010                                                 
C 61.545806 41.206204 42.487536                                                 
C 61.607847 41.180319 50.231339                                                 
C 62.898321 43.465161 42.653387                                                 
H 63.673172 41.203317 50.338158                                                 
C 61.638931 45.831949 42.767816                                                 
C 61.582166 45.884728 50.165529                                                 
C 62.948422 48.163596 42.848370                                                 
H 63.646550 45.901410 50.307252                                                 
H 64.962849 43.453449 42.560390                                                 
C 61.799500 55.390388 29.969921                                                 
C 61.542535 55.193749 37.115882                                                 
C 63.060117 57.760490 30.172861                                                 
H 63.608288 55.192971 37.253111                                                 
H 65.141711 53.026527 29.594415                                                 
C 61.613187 55.202699 42.763273                                                 
C 61.563874 55.183594 49.848536                                                 
C 62.894377 57.560995 42.862135                                                 
H 63.631267 55.176876 49.920311                                                 
H 64.987180 52.881016 42.706227                                                 
C 61.768573 50.687771 29.742510                                                 
C 61.555431 50.513885 37.010431                                                 
C 63.080663 53.033089 29.745795                                                 
H 65.081414 48.308881 29.444705                                                 
C 61.655358 50.515418 42.790092                                                 
C 61.548949 50.534458 50.018722                                                 
C 62.921728 52.862335 42.762166                                                 
H 65.015347 48.159602 42.767705                                                 
H 41.805960 71.193088 30.328786                                                 
H 44.427652 70.963186 36.409372                                                 
H 41.766387 71.023482 43.326857                                                 
H 44.300058 70.837802 50.678772                                                 
C 45.479929 69.394254 30.252871                                                 
C 45.473779 69.183798 36.546679                                                 
H 46.519037 71.180812 30.334777                                                 
C 48.056256 69.204823 36.856728                                                 
C 49.557105 67.043503 29.898031                                                 
C 49.470418 66.919366 37.007488                                                 
H 50.594597 68.832853 29.855539                                                 
C 52.146542 66.885838 37.110738                                                 
H 49.081376 70.998981 36.968131                                                 
C 45.404297 69.200923 43.009801                                                 
C 45.357387 69.065024 50.557244                                                 
H 46.448152 70.980731 42.915949                                                 
C 47.965440 69.096809 50.436074                                                 
C 49.463928 66.842077 42.811259                                                 
C 49.389034 66.825219 50.289400                                                 
H 50.501247 68.626793 42.694511                                                 
C 52.069842 66.818006 50.195437                                                 
H 48.985391 70.895812 50.465939                                                 
H 57.267187 66.306805 37.256612                                                 
H 57.191148 66.326454 50.249943                                                 
H 53.163076 68.683040 37.199796                                                 
H 53.073536 68.622026 50.307772                                                 
C 57.636917 62.404389 29.980031                                                 
C 57.585755 62.221331 37.182117                                                 
H 58.656834 64.203153 29.927963                                                 
C 60.273288 62.137226 37.126644                                                 
C 57.518960 62.133347 42.897106                                                 
C 57.560207 62.252382 49.735307                                                 
H 58.556903 63.927051 42.750762                                                 
C 60.238479 62.174473 49.515082                                                 
C 53.584829 64.699803 29.820082                                                 
C 53.548517 64.601767 37.124188                                                 
C 56.222611 64.525814 37.171321                                                 
C 53.488003 64.492450 42.893840                                                 
C 53.480023 64.561791 50.049719                                                 
C 56.166739 64.540934 50.055670                                                 
C 61.717235 60.054059 30.303234                                                 
C 61.550370 59.876829 37.053633                                                 
H 62.744622 61.839684 30.451502                                                 
H 63.617887 59.847798 37.050886                                                 
H 65.125861 57.771802 30.225903                                                 
H 61.310496 63.925834 37.173424                                                 
C 61.578502 59.800235 42.968337                                                 
C 61.562966 59.872301 49.430392                                                 
H 62.590206 61.603418 43.001059                                                 
H 63.623682 59.869243 49.299709                                                 
H 64.962942 57.555122 42.815919                                                 
H 61.276375 63.961154 49.457728                                                 
H 63.614160 50.540267 50.146202                                                 
H 36.413799 34.658786 50.446238                                                 
H 36.258091 66.131156 50.563934                                                 
H 27.196240 50.583876 43.259558                                                 
H 54.529258 66.263603 42.602732                                                 
H 63.607799 50.512420 37.283655                                                 
H 54.477638 34.743089 43.235404                                                 
H 36.298518 34.775573 37.122234                                                 
H 36.351998 66.334070 36.306164                                                 
H 54.613960 66.492646 29.724858                                                 
H 27.326107 50.712824 29.433334                                                 
H 54.653977 34.931446 30.261629                                                 
Li 32.033548 41.444368 26.403760                                                
Li 30.537148 47.821843 33.289576                                                
Li 59.073714 59.846643 52.844291                                                
Li 35.958196 38.594045 33.207396                                                
Li 60.432505 57.962772 26.888495                                                
Li 42.494030 36.261118 33.452457                                                
Li 30.439462 57.309680 52.981064                                                
Li 35.817697 62.220496 46.546421                                                
Li 46.960897 33.999577 52.941295                                                
Li 30.216522 48.015645 46.563375                                                
Li 52.391053 39.083473 27.075483                                                
Li 35.698773 38.767873 46.571053                                                
Li 44.129064 67.202444 26.880183                                                
Li 35.767684 62.613383 33.026618                                                
Li 30.540172 53.204530 33.182812                                                
Li 40.264134 36.130942 46.405944                                                
Li 55.177867 38.548673 46.666585                                                
Li 60.531135 48.078818 46.318817                                                
Li 44.319381 66.954426 46.590531                                                
Li 50.637887 64.935737 46.585220                                                
Li 50.832533 64.960324 33.582127                                                
Li 39.885343 65.029284 39.881724                                                
Li 60.490571 53.188690 46.209951                                                
Li 50.782322 36.187231 39.601491                                                
Li 30.830703 42.150530 46.584890                                                
Li 60.876512 48.034903 33.329120                                                
Li 55.359342 62.258268 33.661389                                                
Li 61.013864 53.107676 33.400732                                                
Li 60.246950 42.507276 46.296251                                                
Li 29.387286 53.097701 39.934380                                                
Li 55.833218 63.866659 46.213673                                                
Li 55.909957 37.554327 39.526510                                                
Li 30.728075 60.055472 33.126812                                                
Li 45.242760 53.241480 39.993600                                                
%ENDBLOCK POSITIONS_ABS                                                         

--------------------------------------------------------------------------------
-------------------------------- END INPUT FILE --------------------------------
--------------------------------------------------------------------------------


 
<<<<<<<<<<<<<<<<<<<<<<<<<<<<<<<<< Full system >>>>>>>>>>>>>>>>>>>>>>>>>>>>>>>>>>
<<<<<<<<<<<<<<<<<<<<<<<<<<< PAW Dataset information >>>>>>>>>>>>>>>>>>>>>>>>>>>
File: ~/pp/paw/c_pbe_abinit.paw; rc = 1.25 bohr; shape type =  3; rshape = 1.25 bohr;
  Atomic number:  6;  ionic charge:  4.000000
    Partial Wave 1: l = 0
    Partial Wave 2: l = 0
    Partial Wave 3: l = 1
    Partial Wave 4: l = 1
  Core charge supplied for Nonlinear Core Corrections
File: ~/pp/paw/h_pbe_abinit.paw; rc = 0.90 bohr; shape type =  3; rshape = 0.90 bohr;
  Atomic number:  1;  ionic charge:  1.000000
    Partial Wave 1: l = 0
    Partial Wave 2: l = 0
File: ~/pp/paw/li_pbe_abinit.paw; rc = 1.42 bohr; shape type =  3; rshape = 1.42 bohr;
  Atomic number:  3;  ionic charge:  3.000000
    Partial Wave 1: l = 0
    Partial Wave 2: l = 0
    Partial Wave 3: l = 0
    Partial Wave 4: l = 1
    Partial Wave 5: l = 1
<<<<<<<<<<<<<<<<<<<<<<<<<<<<<<<<<<<<<<< >>>>>>>>>>>>>>>>>>>>>>>>>>>>>>>>>>>>>>>

-------------------------- Atom counting information ---------------------------
Symbol    Natoms    Nngwfs    Nprojs
  C        484      1936      3872
  H        108       108       216
  Li        34       170       306
.......   ......    ......    ......
Totals:    626      2214      4394
--------------------------------------------------------------------------------

=============================== PSINC grid sizes ===============================
                      Simulation cell:  189 x 189 x 189
                              FFT-box:  117 x 117 x 117
                                  PPD:    7 x   7 x   1
Grid space d1=  0.499927596032a0 (KE cutoff=  30.39413Eh = 827.06648eV)
Grid space d2=  0.499927596032a0 (KE cutoff=  30.39413Eh = 827.06648eV)
Grid space d3=  0.499927596032a0 (KE cutoff=  30.39413Eh = 827.06648eV)
================================================================================
  
WARNING in cell_grid_distribute:
Average of less than one 23-slab per node, so workload cannot be
equally balanced between nodes.

********************* Fourier parallelisation information **********************
       Coarse grid (whole simulation cell) dimensions:    189   189   189
          Real-space ('12') slabs/node (min max mean):      0     1     0
         Recip-space ('23') slabs/node (min max mean):      0     1     0
********************************************************************************
  
WARNING in cell_grid_distribute:
Average of less than one 23-slab per node, so workload cannot be
equally balanced between nodes.

********************* Fourier parallelisation information **********************
       Double grid (whole simulation cell) dimensions:    378   378   378
          Real-space ('12') slabs/node (min max mean):      1     2     1
         Recip-space ('23') slabs/node (min max mean):      0     1     0
********************************************************************************

Atom SCF Calculation for C  : Z (AE atom) =   6 : Z (PS atom) =   4
Config String: 2s2 2p2
Orbitals (num,occ):  2     2.00 2.00
Orbitals   (num,l):  2        0    1
Real-space Grid (nr,dr,rmax): 1377    0.0065406977    9.0000000000
Spherical Bessel Basis (nsws,lmax,cutoff):   37    2  183.0099912382
Confining potential (l,width,scale):  0    3.0000000000  100.0000000000
Confining potential (l,width,scale):  1    3.0000000000  100.0000000000
  1         -5.4350126632   -1.2715272878    4.5135247139   -1.5681949477
  2         -5.3876836850   -1.3562195125    4.4235426751   -1.5380057521
  3         -5.3928844498   -1.3758175853    4.4021699684   -1.5318377811
  4         -5.3988962903   -1.3800385428    4.3975423583   -1.5307324410
  5         -5.4018428823   -1.3823489590    4.3950111904   -1.5301555648
  6         -5.4033571720   -1.3835805046    4.3936635548   -1.5298576834
  7         -5.4041480647   -1.3842324820    4.3929512000   -1.5297032953
  8         -5.4045641108   -1.3845769138    4.3925755232   -1.5296229456
  9         -5.4047838258   -1.3847587737    4.3923775340   -1.5295810042
 10         -5.4049001347   -1.3848548089    4.3922731819   -1.5295590658
 11         -5.4049618018   -1.3849055476    4.3922181562   -1.5295475724
 12         -5.4049945351   -1.3849323732    4.3921891206   -1.5295415432
 13         -5.4050119258   -1.3849465673    4.3921737867   -1.5295383767
 14         -5.4050211723   -1.3849540841    4.3921656816   -1.5295367119
 15         -5.4050260920   -1.3849580684    4.3921613935   -1.5295358358
 16         -5.4050287113   -1.3849601822    4.3921591228   -1.5295353742
 17         -5.4050301068   -1.3849613045    4.3921579192   -1.5295351307
 18         -5.4050308507   -1.3849619010    4.3921572806   -1.5295350022
 19         -5.4050312476   -1.3849622183    4.3921569415   -1.5295349343
 20         -5.4050314594   -1.3849623873    4.3921567612   -1.5295348984
 21         -5.4050315725   -1.3849624773    4.3921566653   -1.5295348794
 22         -5.4050316330   -1.3849625253    4.3921566143   -1.5295348693
Atom SCF converged after  22 iterations to a total energy of     -5.40503163

Atom SCF Calculation for H  : Z (AE atom) =   1 : Z (PS atom) =   1
Config String: 1s1
Orbitals (num,occ):  1     1.00
Orbitals   (num,l):  1        0
Real-space Grid (nr,dr,rmax): 1377    0.0065406977    9.0000000000
Spherical Bessel Basis (nsws,lmax,cutoff):   37    1  183.0099912382
Confining potential (l,width,scale):  0    3.0000000000  100.0000000000
  1         -0.3605254152   -0.2399954029    0.2820952946   -0.2424203210
  2         -0.4156854077   -0.2398249290    0.2871789324   -0.2464796203
  3         -0.4412552402   -0.2379720642    0.2899127187   -0.2499011370
  4         -0.4517265951   -0.2371980236    0.2908966173   -0.2514141636
  5         -0.4557775773   -0.2369735141    0.2911607883   -0.2519713623
  6         -0.4573363459   -0.2369240355    0.2912108681   -0.2521663171
  7         -0.4579443228   -0.2369187864    0.2912112833   -0.2522344454
  8         -0.4581858602   -0.2369215483    0.2912049187   -0.2522587615
  9         -0.4582834939   -0.2369242589    0.2912002081   -0.2522677042
 10         -0.4583235236   -0.2369258837    0.2911975892   -0.2522710965
 11         -0.4583401154   -0.2369267223    0.2911962825   -0.2522724192
 12         -0.4583470483   -0.2369271266    0.2911956643   -0.2522729467
 13         -0.4583499624   -0.2369273145    0.2911953803   -0.2522731607
 14         -0.4583511926   -0.2369274000    0.2911952521   -0.2522732486
 15         -0.4583517136   -0.2369274385    0.2911951948   -0.2522732850
 16         -0.4583519349   -0.2369274556    0.2911951693   -0.2522733002
 17         -0.4583520290   -0.2369274632    0.2911951581   -0.2522733066
Atom SCF converged after  17 iterations to a total energy of     -0.45835203

Atom SCF Calculation for Li : Z (AE atom) =   3 : Z (PS atom) =   3
Config String: 1s2 2s1 2p0
Orbitals (num,occ):  3     2.00 1.00 0.00
Orbitals   (num,l):  3        0    0    1
Real-space Grid (nr,dr,rmax): 1377    0.0065406977    9.0000000000
Spherical Bessel Basis (nsws,lmax,cutoff):   37    2  183.0099912382
Confining potential (l,width,scale):  0    3.0000000000  100.0000000000
Confining potential (l,width,scale):  1    3.0000000000  100.0000000000
  1         -6.0640888065   -4.6655401716    2.5388576516   -0.9989538799
  2         -6.9627542978   -4.0954079129    2.9808988108   -1.1965571426
  3         -7.2692687601   -3.8889996707    3.2029735703   -1.3193883705
  4         -7.3784440298   -3.8322099748    3.2868571989   -1.3711018151
  5         -7.4170278248   -3.8191968371    3.3144974220   -1.3911175539
  6         -7.4303549880   -3.8172386945    3.3228486489   -1.3986896266
  7         -7.4348052089   -3.8175483495    3.3251259310   -1.4015352495
  8         -7.4362242328   -3.8180607346    3.3256233205   -1.4026016384
  9         -7.4366459715   -3.8184145665    3.3256561549   -1.4029998726
 10         -7.4367560626   -3.8186169740    3.3256001574   -1.4031477379
 11         -7.4367765260   -3.8187239825    3.3255481763   -1.4032021548
 12         -7.4367751741   -3.8187782620    3.3255144587   -1.4032219192
 13         -7.4367707398   -3.8188051288    3.3254952336   -1.4032289600
 14         -7.4367680349   -3.8188156035    3.3254870176   -1.4032309087
 15         -7.4367661982   -3.8188217406    3.3254819951   -1.4032318132
 16         -7.4367650112   -3.8188253257    3.3254789583   -1.4032322224
 17         -7.4367642682   -3.8188274151    3.3254771375   -1.4032324006
 18         -7.4367638134   -3.8188286307    3.3254760529   -1.4032324736
 19         -7.4367635392   -3.8188293370    3.3254754103   -1.4032325004
 20         -7.4367633760   -3.8188297469    3.3254750310   -1.4032325080
 21         -7.4367632796   -3.8188299846    3.3254748079   -1.4032325082
Atom SCF converged after  21 iterations to a total energy of     -7.43676328

Determining parallel strategy ...
... using space-filling curve
... NGWF load balancing: max      9;  min      4;  average      7
... Projector load balancing: max     18;  min      8;  average     14
... done
Calculating Ewald energy ...
              Ewald: real-space energy =   36637.866829
        Ewald: reciprocal-space energy =   36144.189380
         Ewald: (sum_charge)**2 Energy =    2848.846704
         Ewald: (sum_charge**2) Energy =     252.528564
                          Ewald Energy =   69680.680942
======================= Empirical dispersion information =======================
Model : Grimme D2
Dispersion Correction Energy: -0.22828164E+01 Hartree
================================================================================
Basis initialisation ...... NGWF spheres initialised
... Projector spheres initialised
... NGWF tight boxes initialised
... Projector tight boxes initialised
... Tight-boxes gathered
... NGWF basis size (local,global):     232062  75835234
... PAW projector initialisation
... done

============================= Charge Augmentation ==============================
                           Aug box size:   13 x  13 x  13
================================================================================

========================== Sparse matrix information ===========================
                        Overlap matrix filling:  37.63%
                        Density kernel filling: 100.00%
              NGWF-Proj overlap matrix filling:  10.56%
                    Aug Overlap matrix filling:  41.84%
                    Hamiltonian matrix filling:  41.84%
                  NGWF diagonal matrix filling:   0.18%
                             KS matrix filling: 100.00% 
                           KSKS matrix filling: 100.00% 
================================================================================

Sparse matrix initialisation ... done
NGWF initialisation ...... done
============ Calculation of NGWF S^-1 using Hotelling algorithm ================ 
         Iteration  |  Frobenius norm and Maximum abs value    (of I-S*S_n^-1)   
               1       0.46782769E+02     0.99707840E+00
               2       0.46524795E+02     0.99417087E+00
               3       0.46042789E+02     0.98839701E+00
               4       0.45194737E+02     0.97700758E+00
               5       0.43842956E+02     0.95481658E+00
               6       0.41951085E+02     0.91250610E+00
               7       0.39580649E+02     0.83474395E+00
               8       0.36770365E+02     0.78623504E+00
               9       0.33663988E+02     0.77140339E+00
              10       0.30590283E+02     0.75229537E+00
              11       0.27522548E+02     0.73601681E+00
              12       0.23859455E+02     0.72208902E+00
              13       0.19067103E+02     0.69709691E+00
              14       0.13156254E+02     0.65276650E+00
              15       0.73245265E+01     0.57796666E+00
              16       0.35243187E+01     0.46043439E+00
              17       0.19918706E+01     0.29786489E+00
              18       0.11489694E+01     0.17264731E+00
              19       0.48653677E+00     0.85596468E-01
              20       0.11002803E+00     0.24140271E-01
              21       0.76361137E-02     0.19712576E-02
              22       0.46348010E-04     0.13154239E-04
              23       0.19901821E-08     0.58579319E-09
              24       0.53110439E-13     0.60784711E-14
================================================================================
Calculating core density ...
================================= Core Density =================================
               Core den box size:   21 x  21 x  21
================================================================================
 ... done
Up spin density kernel initialisation ...... done

Writing density kernel to file "34/592nano.dkn" ... done

>>> Optimising kernel for current NGWFs:

--------------------------- Ensemble-DFT optimisation --------------------------
Running ScaLAPACK on  320 processor(s).

--------------------------------------------------------------------------------
  Iter                              Commutator    Free_energy(A=E-TS)     DeltaA
#    0                          0.001187789520   -3073.15979299965329  -3.07E+03

Step                       =       0.381966011250
Energy                     =   -3073.128509544229
Entropy (-TS)              =      -0.031283455803
Free energy (A=E-TS)       =   -3073.159792999653
Est. 0K Energy 0.5*(E+A)   =   -3073.144151271941
Residual Non-orthogonality =       0.000000000000
Residual N_electrons       =       0.000000000378

Spin          Integrated_Ne            Fermi_level     Delta_Fermi_level
   1      2146.000000001624        -0.232988242454             -2.33E-01

                           Spin 1          
     Orb      H-eigenvalues     Occupancies
       1 |    -1.9057742220    1.0000000000 | 
                          ------
    1069 |    -0.2507346607    0.9963299599 | 
    1070 |    -0.2459237277    0.9834503687 | 
    1071 |    -0.2372248071    0.7921281429 | 
    1072 |    -0.2353693172    0.6795890645 | 
    1073 |    -0.2323023426    0.4460631794 | 
                 - Gap at zero temperature -
    1074 |    -0.2307024894    0.3270003110 | 
    1075 |    -0.2300868574    0.2857358711 | 
    1076 |    -0.2273692147    0.1450023596 | 
    1077 |    -0.2264176001    0.1115659181 | 
    1078 |    -0.2250993181    0.0764826696 | 
                          ------
    2214 |     0.5564268150    0.0000000000 | 

                       |  Abs_value |  Threshold | Converged
     Delta_Free_energy |   3.07E+03 |   1.00E-06 |        No
     Delta_Energy      |   3.07E+03 |   1.00E-04 |        No
     Delta_Entropy     |   3.13E-02 |   1.00E-04 |        No
     Commutator        |   1.19E-03 |   1.00E-05 |        No
     Delta_Fermi_level |   2.33E-01 |   1.00E-03 |        No

  Line search of the free energy minimum:
  Step_type        Step             Free_energy   Predicted_free_energy
.   Initial    0.000000    -3073.15979299965329
.    Trial1    0.381966    -3073.64365800339010
.    Trial2    0.618034    -3071.42082609895351
. Quadratic    0.227626    -3074.08745923998140    -3074.05540416598842

--------------------------------------------------------------------------------
  Iter                              Commutator    Free_energy(A=E-TS)     DeltaA
#    1                          0.000651321595   -3074.08745923998140  -9.28E-01

Step                       =       0.227626345313
Energy                     =   -3074.051902426803
Entropy (-TS)              =      -0.035556813283
Free energy (A=E-TS)       =   -3074.087459239981
Est. 0K Energy 0.5*(E+A)   =   -3074.069680833392
Residual Non-orthogonality =       0.000000000000
Residual N_electrons       =       0.000000000105

Spin          Integrated_Ne            Fermi_level     Delta_Fermi_level
   1      2146.000000000501        -0.208695098638              2.43E-02

                           Spin 1          
     Orb      H-eigenvalues     Occupancies
       1 |    -1.9086971628    1.0000000000 | 
                          ------
    1069 |    -0.2171281328    0.9348041782 | 
    1070 |    -0.2160226566    0.9100184238 | 
    1071 |    -0.2126671065    0.7780365785 | 
    1072 |    -0.2119081522    0.7339198262 | 
    1073 |    -0.2088308520    0.5107152371 | 
                 - Gap at zero temperature -
    1074 |    -0.2062188365    0.3139015441 | 
    1075 |    -0.2057896306    0.2854728038 | 
    1076 |    -0.2039565762    0.1829769536 | 
    1077 |    -0.2031685868    0.1486619322 | 
    1078 |    -0.2018692365    0.1038242596 | 
                          ------
    2214 |     0.5874043566    0.0000000000 | 

                       |  Abs_value |  Threshold | Converged
     Delta_Free_energy |   9.28E-01 |   1.00E-06 |        No
     Delta_Energy      |   9.23E-01 |   1.00E-04 |        No
     Delta_Entropy     |   4.27E-03 |   1.00E-04 |        No
     Commutator        |   6.51E-04 |   1.00E-05 |        No
     Delta_Fermi_level |   2.43E-02 |   1.00E-03 |        No

  Line search of the free energy minimum:
  Step_type        Step             Free_energy   Predicted_free_energy
.   Initial    0.000000    -3074.08745923998140
.    Trial1    0.227626    -3074.00709082258345
.    Trial2    0.086946    -3074.27490737237622
. Quadratic    0.103915    -3074.27895046687854    -3074.28004292924152

[...]
 C   248 -- C   298       -0.09      5.40618
 C   191 -- C   221       -0.09      5.40637
 C   226 -- C   304       -0.09      5.40659
 C   406 -- C   440       -0.09      5.40661
 C     9 -- C   433       -0.09      5.40674
 C    39 -- C    45       -0.09      5.40688
 H   586 -- Li  618       -0.02      5.40707
 C   354 -- C   384       -0.09      5.40707
 C    92 -- C   122       -0.09      5.40716
 C   258 -- C   448       -0.09      5.40720
 C   266 -- C   452       -0.09      5.40725
 C   210 -- C   296       -0.09      5.40734
 C    48 -- C   126       -0.09      5.40740
 C   350 -- C   380       -0.09      5.40753
 C    36 -- C    50       -0.09      5.40783
 C   213 -- C   313       -0.09      5.40784
 C    61 -- C   387       -0.09      5.40784
 C    37 -- C   508       -0.07      5.40793
 C    40 -- C    54       -0.09      5.40811
 C    49 -- C    59       -0.09      5.40813
 C   262 -- C   460       -0.09      5.40817
 C   444 -- C   492       -0.08      5.40819
 C   198 -- C   224       -0.08      5.40819
 C    83 -- C    85       -0.08      5.40832
 C   257 -- C   267       -0.09      5.40841
 C     9 -- C    15       -0.09      5.40842
 C   449 -- C   455       -0.09      5.40859
 C   105 -- C   111       -0.09      5.40859
 C   435 -- C   445       -0.09      5.40887
 C     3 -- C   447       -0.09      5.40898
 C   316 -- C   374       -0.09      5.40903
 C    33 -- C    43       -0.09      5.40907
 C     1 -- C     7       -0.09      5.40929
 C   330 -- C   382       -0.09      5.40930
 C   330 -- C   394       -0.09      5.40959
 C   143 -- C   219       -0.07      5.40982
 C   194 -- C   288       -0.09      5.40984
 C   420 -- C   444       -0.08      5.40985
 C   289 -- C   299       -0.09      5.40988
 C    11 -- C   431       -0.09      5.41005
 C   193 -- C   219       -0.09      5.41011
 C    86 -- C   482       -0.09      5.41020
 C    84 -- C   114       -0.09      5.41030
 C   221 -- C   243       -0.09      5.41039
 C   229 -- C   373       -0.08      5.41086
 C   431 -- C   441       -0.09      5.41110
 C   113 -- C   481       -0.09      5.41120
 C   186 -- C   192       -0.09      5.41147
 C   111 -- C   121       -0.09      5.41172
 C    97 -- C   123       -0.09      5.41217
 C    13 -- C    43       -0.09      5.41218
 C   182 -- C   188       -0.10      5.41271
 C    88 -- C   547       -0.08      5.41275
 C   409 -- C   455       -0.09      5.41279
 C   212 -- C   230       -0.08      5.41289
 C   256 -- C   410       -0.09      5.41309
 C    39 -- C   516       -0.08      5.41330
 C   206 -- C   304       -0.09      5.41345
 C   216 -- C   234       -0.08      5.41348
 C    58 -- C   364       -0.09      5.41387
 C    38 -- C    56       -0.08      5.41408
 C    72 -- C   102       -0.08      5.41432
 C    62 -- C   368       -0.09      5.41443
 C    35 -- C   497       -0.08      5.41444
 C   466 -- C   538       -0.10      5.41445
 C    99 -- C   121       -0.09      5.41449
 C    80 -- C   556       -0.08      5.41498
 C    85 -- C    95       -0.09      5.41499
 C    55 -- C    61       -0.09      5.41511
 C    88 -- Li  623       -0.06      5.41521
 C   318 -- C   380       -0.08      5.41531
 C   205 -- C   207       -0.09      5.41542
 C   479 -- C   491       -0.07      5.41562
 C   268 -- C   286       -0.09      5.41582
 C   253 -- C   255       -0.08      5.41593
 C   358 -- C   388       -0.09      5.41603
 C   256 -- C   290       -0.09      5.41604
 C   427 -- C   445       -0.08      5.41628
 C   262 -- C   292       -0.09      5.41645
 C   188 -- C   286       -0.08      5.41649
 C    53 -- C   395       -0.08      5.41671
 C    75 -- C    77       -0.08      5.41672
 C   254 -- C   456       -0.09      5.41701
 C    96 -- C   126       -0.09      5.41726
 C   272 -- C   294       -0.09      5.41733
 C    52 -- C   338       -0.10      5.41739
 C   202 -- C   208       -0.09      5.41748
 C   477 -- C   485       -0.09      5.41750
 C   385 -- C   395       -0.08      5.41753
 C   185 -- C   299       -0.09      5.41754
 C    30 -- C   120       -0.09      5.41783
 C   407 -- C   457       -0.09      5.41894
 C    35 -- C    41       -0.09      5.41917
 C   199 -- C   241       -0.08      5.42022
 C   237 -- C   275       -0.09      5.42027
 C    70 -- C   104       -0.08      5.42032
 C   338 -- C   380       -0.08      5.42058
 C    88 -- C   118       -0.09      5.42152
 C    97 -- C   523       -0.06      5.42155
 C    67 -- C    89       -0.08      5.42176
 C   186 -- C   212       -0.08      5.42185
 C   230 -- C   318       -0.09      5.42194
 C   416 -- C   476       -0.08      5.42200
 C   430 -- C   480       -0.08      5.42213
 C   189 -- C   191       -0.08      5.42235
 C   231 -- C   241       -0.08      5.42294
 C   229 -- C   235       -0.09      5.42330
 C    80 -- C   538       -0.08      5.42423
 H   165 -- Li  602       -0.03      5.42493
 C    65 -- C    91       -0.08      5.42511
 H   426 -- Li  600       -0.03      5.42532
 C   181 -- C   287       -0.08      5.42558
 C   293 -- C   295       -0.08      5.42574
 C    73 -- C    79       -0.08      5.42610
 C   242 -- C   328       -0.08      5.42640
 C    94 -- C   568       -0.07      5.42675
 C   227 -- C   309       -0.09      5.42675
 C   408 -- C   416       -0.09      5.42786
 C   202 -- C   216       -0.08      5.42844
 C    40 -- C   102       -0.08      5.42853
 C    38 -- C   104       -0.08      5.42866
 C   342 -- C   388       -0.07      5.42930
 C   445 -- C   467       -0.07      5.42969
 C   285 -- C   287       -0.08      5.42993
 H   412 -- Li  606       -0.02      5.43012
 C   175 -- C   256       -0.06      5.43017
 C   238 -- C   314       -0.08      5.43024
 C   204 -- C   294       -0.07      5.43036
 C   470 -- C   547       -0.09      5.43073
 C   205 -- C   263       -0.08      5.43103
 C   422 -- C   430       -0.08      5.43152
 C   189 -- C   255       -0.08      5.43155
 C    39 -- C   506       -0.07      5.43202
 C   220 -- C   238       -0.08      5.43236
 C   343 -- C   506       -0.08      5.43243
 C    77 -- C    91       -0.08      5.43418
 C   343 -- C   365       -0.08      5.43595
 C    34 -- C   100       -0.08      5.43618
 C   224 -- C   242       -0.08      5.43664
 C    96 -- C   567       -0.08      5.43685
 C   364 -- C   390       -0.08      5.43751
 C    79 -- C    89       -0.08      5.43805
 C    27 -- Li  626       -0.09      5.43865
 C    56 -- C   342       -0.09      5.43869
 C    36 -- C    98       -0.08      5.43926
 C    55 -- C   525       -0.07      5.43947
 C   233 -- C   239       -0.08      5.43961
 C   413 -- C   441       -0.07      5.44069
 C   423 -- C   489       -0.08      5.44112
 C   440 -- C   488       -0.07      5.44157
 C    87 -- C    93       -0.08      5.44193
 C    88 -- C   560       -0.07      5.44396
 C   103 -- C   525       -0.08      5.44437
 C    84 -- C   567       -0.08      5.44463
 C   252 -- C   406       -0.09      5.44474
 C    92 -- C   564       -0.07      5.44484
 C   316 -- C   390       -0.07      5.44515
 C    51 -- C   521       -0.08      5.44530
 C    76 -- C   564       -0.07      5.44538
 C   185 -- C   235       -0.07      5.44591
 C   377 -- C   391       -0.07      5.44615
 C   319 -- C   361       -0.07      5.44695
 C   183 -- C   237       -0.07      5.44705
 C   253 -- C   413       -0.08      5.44711
 C   409 -- C   485       -0.07      5.44829
 C   206 -- C   292       -0.07      5.44889
 C   201 -- C   239       -0.07      5.45159
 C   197 -- C   199       -0.08      5.45184
 C   198 -- C   204       -0.08      5.45323
 C   368 -- C   394       -0.07      5.45367
 C    83 -- C   467       -0.08      5.45502
 C    35 -- C   511       -0.07      5.45510
 C   481 -- C   489       -0.07      5.45534
 H   505 -- Li  621       -0.02      5.45677
 C   190 -- C   284       -0.07      5.45878
 C    99 -- C   521       -0.07      5.45972
 C    72 -- C   560       -0.08      5.46306
 C   181 -- Li  594       -0.09      5.46321
 C   234 -- C   332       -0.08      5.46980
 C   260 -- C   420       -0.08      5.47339
 C    75 -- C   463       -0.08      5.47421
 H   141 -- Li  596       -0.02      5.47618
 C   333 -- C   365       -0.07      5.47675
 H   174 -- Li  607       -0.02      5.47702
 H   588 -- Li  596       -0.03      5.47928
 C    67 -- Li  619       -0.09      5.48127
 C    72 -- Li  615       -0.09      5.48198
 C   181 -- C   183       -0.08      5.48273
 C   252 -- C   286       -0.06      5.48419
 C    67 -- C   511       -0.08      5.48697
 H   131 -- Li  617       -0.02      5.49482
 H   581 -- Li  610       -0.02      5.49660
 H   326 -- Li  616       -0.02      5.49780
 C   254 -- C   284       -0.06      5.49781
 H   509 -- Li  610       -0.02      5.50949
 C   234 -- Li  608       -0.08      5.52408
 H   591 -- Li  607       -0.02      5.53149
 C   434 -- Li  626       -0.08      5.53972
 H   400 -- Li  621       -0.02      5.54816
 H   371 -- Li  609       -0.02      5.56234
 C   368 -- Li  621       -0.04      5.56971
 H   132 -- Li  617       -0.02      5.57112
 Li  610 -- Li  621       -0.13      5.57883
 C   340 -- Li  624       -0.06      5.59723
 H   146 -- Li  604       -0.02      5.60036
 C   365 -- Li  624       -0.04      5.60245
 H   590 -- Li  613       -0.02      5.61478
 H   515 -- Li  620       -0.02      5.61549
 C   343 -- Li  624       -0.07      5.62191
 H   583 -- Li  600       -0.02      5.62384
 H   159 -- Li  602       -0.02      5.62591
 H   532 -- Li  611       -0.02      5.63868
 C   337 -- C   338       -0.03      5.63872
 C   512 -- C   516       -0.04      5.64784
 C   416 -- Li  614       -0.06      5.64956
 H   473 -- Li  614       -0.01      5.64979
 C   488 -- Li  606       -0.06      5.65101
 Li  606 -- Li  625       -0.10      5.65249
 C   203 -- Li  617       -0.06      5.65743
 H   173 -- Li  607       -0.02      5.65788
 C    83 -- Li  612       -0.04      5.66403
 C   341 -- Li  621       -0.07      5.66528
 C    75 -- Li  613       -0.07      5.66882
==================================================


=================== Orbital energy and occupancy information ===================

      Total number of orbitals:    2214
        Occupancy sum (kernel):    1073.000000001
   Occupancy sum (eigenvalues):    1073.000000001
                 HOMO-LUMO gap:       0.000164360 Eh
                 Mid-gap level:      -0.065412602 Eh

                        Orbital | Energy (Eh) | Occupancy
                            1    -1.882797046   1.0000000
                        .......   ...........   .........
                         1065    -0.085116657   0.9955695
                         1066    -0.084874841   0.9952239
                         1067    -0.083939089   0.9935729
                         1068    -0.081034154   0.9839960
                         1069    -0.078809379   0.9681294
                         1070    -0.075827967   0.9225565
                         1071    -0.070514074   0.6903853
                         1072    -0.069564307   0.6214527
                         1073    -0.069189143   0.5929317
                         1074    -0.065494782   0.3127230
                        ....... -- gap at 0K -- .........
                         1075    -0.065330422   0.3024262
                         1076    -0.063023967   0.1718209
                         1077    -0.062154790   0.1365376
                         1078    -0.061863452   0.1262837
                         1079    -0.061210209   0.1051568
                         1080    -0.057888718   0.0395158
                         1081    -0.055386582   0.0182887
                         1082    -0.054642550   0.0145197
                         1083    -0.049752738   0.0031305
                         1084    -0.048197618   0.0019145
                        .......   ...........   .........
                         2214     0.784442862   0.0000000

================================================================================

===================== Writing canonical molecular orbitals =====================
| Orbital  Energy (eV)  Norm     |
| HOMO     -1.78220370  1.000000 | Writing "34/592nano_HOMO.cube" ... done
Writing "34/592nano_HOMO.dx" ... done
| LUMO     -1.77773123  1.000000 | Writing "34/592nano_LUMO.cube" ... done
Writing "34/592nano_LUMO.dx" ... done
================================================================================

================== Local Density of States (LDOS) calculation ==================
Writing "34/592nano_LDOS.txt" ...  done
================================================================================
 
===================== Density of States (DOS) calculation ======================
Writing "34/592nano_DOS.txt" ...  done
================================================================================
 
Writing bands to file "34/592nano.val_bands" ... done
 
================ Projected Density of States (pDOS) calculation ================
 
Constructing AM resolved functions  ...... done
Writing NGWF plot files in formats: CUBE DX ...  done
 
Performing overlap integrals ...  done
 
Computing pDOS weights ...  done
 
All bands spilling parameter =   2.70 %
Occupancy-weighted spilling parameter =   0.86 %
 
 => Outputting data for OptaDOS <=
 
Writing pDOS weights to file "34/592nano.val_pdos_bin" ... done
 
Writing band gradients to file "34/592nano.val_dome_bin" ... done
 
Writing Castep output cell file to "34/592nano-out.cell" ... done
 
 => Computing Gaussian smeared pDOS <= 
Writing "34/592nano_PDOS.txt" ...  done
 
 => Computing Occupancy-weighted Gaussian smeared pDOS <= 
Writing "34/592nano_occ_PDOS.txt" ...  done
  => Band centres: 
 S band centre of group 1:  -18.067907 eV
 P band centre of group 1:   -8.232003 eV
  Band centres done. <=
  => Integrated number of electrons in each AM band: 
 S num electrons of group 1:  598.084702
 P num electrons of group 1: 1529.382682
  Integrated number of electrons done. <=
================================================================================

------------------------------ TIMING INFORMATION ------------------------------
AVERAGE TIME:    7405.391s on    320 node(s)                                    
TOTAL TIME:      7405.394s on    320 node(s)                                    
================= AVERAGE TIMINGS FROM ALL NODES (CUMULATIVE) ==================
|| TAG                                    #calls    cpu time   %total  Gflops ||
|| work_imbalance                       :     1        0.00s   0.000%  ------ ||
|| sparse_set_to_garbage                :   147        0.00s   0.000%  ------ ||
|| paw_sphere_density_on_grid           :     1        0.01s   0.000%  ------ ||
|| basis_extract_function_from_box      :   179        0.01s   0.000%  ------ ||
|| paw_tcore_density                    :     1        0.01s   0.000%  ------ ||
|| paw_dij_hartree                      :   883        0.02s   0.000%  ------ ||
|| ngwfs_initialise_from_radial         :     2        0.02s   0.000%  ------ ||
|| density_init_guess_real              :     1        0.08s   0.001%  ------ ||
|| ewald_calculate_energy               :     1        0.09s   0.001%  ------ ||
|| pseudo_make_structure_factor         :     1        0.29s   0.004%  ------ ||
|| paw_dataset_init                     :     3        0.52s   0.007%  ------ ||
|| paw_tcore_hartree_on_grid            :     1        1.12s   0.015%  ------ ||
|| dense_normal_eigensolve              :     1        1.17s   0.016%  ------ ||
|| sparse_init                          :     1        1.29s   0.017%  ------ ||
|| restart_kernel_write                 :    14        1.42s   0.019%  ------ ||
|| paw_species_calc_proj_prec_mat       :     1        2.20s   0.030%  ------ ||
|| fourier_apply_box_pair               :   270        2.88s   0.039%  4.954k ||
|| ngwf_gradient_coeffs                 :    13        5.03s   0.068%  ------ ||
|| augmentation_screen_dij              :   663        6.78s   0.092%  ------ ||
|| sparse_embed_hotelling_invert_embed  :    25        7.49s   0.101%  ------ ||
|| sw_init                              :     1        7.52s   0.102%  ------ ||
|| basis_copy_function_to_box           :  6351        8.21s   0.111%  ------ ||
|| paw_dij_xc                           :   883       15.09s   0.204%  ------ ||
|| hartree_on_grid                      :   658       18.40s   0.249%  ------ ||
|| projectors_init_fftbox_recip         :    53       19.98s   0.270%  ------ ||
|| integrals_kinetic                    :    25       23.24s   0.314%  ------ ||
|| projectors_func_ovlp_box             :    26       26.31s   0.355%  ------ ||
|| hamiltonian_energy_components        :     3       32.41s   0.438%  ------ ||
|| basis_dot_function_with_box          : 1.430M      34.66s   0.468%  ------ ||
|| function_ops_brappd_ketppd           :    52       36.50s   0.493%  ------ ||
|| augmentation_density_on_grid         :   658       44.90s   0.606%  ------ ||
|| fourier_apply_cell_backward          :  3287       46.10s   0.623% 248.149 ||
|| sparse_trace                         :  8244       50.00s   0.675%  ------ ||
|| fourier_apply_cell_forward           :  3286       52.57s   0.710% 217.580 ||
|| aug_nonlocal_mat                     :   870       57.85s   0.781%  ------ ||
|| eigenstates_pdos                     :     1       61.61s   0.832%  ------ ||
|| xc_energy_potential                  :   657       89.30s   1.206%  ------ ||
|| basis_add_function_to_box            : 4.093M      92.94s   1.255%  ------ ||
|| eigenstates_calculate                :     1      121.22s   1.637%  ------ ||
|| restart_ngwfs_tightbox_output        :    12      124.18s   1.677%  ------ ||
|| projectors_gradient_batch            :    13      140.69s   1.900%  ------ ||
|| integrals_locpot_mat_els_batch       :   221      177.02s   2.390%  ------ ||
|| dense_eigensolve                     :   629      189.57s   2.560%  ------ ||
|| projectors_grad_precond_batch        :    13      194.58s   2.628%  ------ ||
|| sparse_product                       :  7297      211.38s   2.854%  ------ ||
|| cell_grid_deposit_box_real           : 13845      269.57s   3.640%  ------ ||
|| cell_grid_extract_box_real           :  4328      372.46s   5.030%  ------ ||
|| ngwf_gradient_build_batch            :    13      388.02s   5.240%  ------ ||
|| ngwf_gradient_batch                  :    13      427.72s   5.776%  ------ ||
|| ngwf_gradient_lnv                    :    13      436.06s   5.888%  ------ ||
|| fourier_apply_box                    : 20003      438.92s   5.927%  7.849k ||
|| density_batch_row_sums               :   658      484.65s   6.544%  ------ ||
|| potential_apply_to_ngwf_batch        :   221      573.37s   7.743%  ------ ||
|| density_fftbox_interpolate_multiply  :  5922      585.32s   7.904%  ------ ||
|| density_fftbox_deposit_to_cell       :  5922      607.04s   8.197%  ------ ||
|| integrals_locpot_dbl_grid            :   221      758.83s  10.247%  ------ ||
|| properties_calculate                 :     1     1026.61s  13.863%  ------ ||
|| edft_diag_ngwf_ham                   :   628     1470.12s  19.852%  ------ ||
|| density_batch_interp_deposit         :   658     1544.97s  20.863%  ------ ||
|| edft_apply_smearing_operator         :   628     2034.70s  27.476%  ------ ||
|| density_on_dbl_grid                  :   658     2071.17s  27.968%  ------ ||
|| hamiltonian_lhxc_calculate           :   653     2389.72s  32.270%  ------ ||
|| edft_calculate                       :    13     5316.39s  71.791%  ------ ||
|| ngwf_cg_optimise                     :     1     6363.12s  85.926%  ------ ||
|| total_time                           :     1     7405.39s 100.000%  ------ ||
================================================================================
Overhead of generating timer report: 
- 0 ms averaging over threads,
- 52 ms ensuring consistency across MPI ranks,
- 0 ms printing in order.

Job completed: 15-07-2020 21:05 (+0100)

