 +---------------------------------------------------------------+
 |                                                               |
 |        ####### #     # ####### ####### ####### ######         |
 |        #     # ##    # #          #    #       #     #        |
 |        #     # # #   # #          #    #       #     #        |
 |        #     # #  #  # #####      #    #####   ######         |
 |        #     # #   # # #          #    #       #              |
 |        #     # #    ## #          #    #       #              |
 |        ####### #     # #######    #    ####### #              |
 |                                                               |
 |        Linear-Scaling Ab Initio Total Energy Program          |
 |                                                               |
 |          Release for academic collaborators of ODG            |
 |                                             Version 5.3.2.12  |
 |                                                               |
 +---------------------------------------------------------------+
 |                                                               |
 |  Authors:                                                     |
 |  Jacek Dziedzic, Peter D. Haynes, Nicholas D. M. Hine,        |
 |  Arash. A. Mostofi, Mike C. Payne and Chris-Kriton Skylaris   |
 |                                                               |
 |  Contributors:                                                |
 |  J. Aarons, L. Andrinopoulos, P. W. Avraam, R. A. Bell,       |
 |  A. Bhandari, G. A. Bramley, R. J. Charlton, S. J. Clark,     |
 |  R. J. Clements, G. C. Constantinescu, F. Corsetti,           |
 |  N. Corsini, O. Dieguez, S. M. M. Dubois, K. K. B. Duff,      |
 |  J. M. Escartin, A. Greco, H. Helal, Q. O. Hill, L. P. Lee,   |
 |  J.-H. Li, E. B. Linscott, G. Moynihan, D. D. O`Regan,        |
 |  O. K. Okan, M. J. S. Phipps, C. J. Pickard,                  |
 |  J. C. A. Prentice, M. I. J. Probert, L. E. Ratcliff,         |
 |  M. Robinson, A. Ruiz Serrano, J. S. Spencer, E. W. Tait,     |
 |  G. Teobaldi, D. Turban, V. Vitale, K. A. Wilkinson,          |
 |  C. Weber, J. C. Womack, N. Yeung and T. J. Zuehlsdorff       |
 |                                                               |
 |                                   Copyright (c) 2004-2020     |
 |                                                               |
 |  Please cite:                                                 |
 |  "Introducing ONETEP: Linear-scaling density functional       |
 |   simulations on parallel computers".                         |
 |   C.-K. Skylaris, P. D. Haynes, A. A. Mostofi, M. C. Payne.   |
 |   J. Chem. Phys. 122 084119 (2005).                           |
 |                                                               |
 |          in all publications arising from your use of ONETEP. |
 |                                                               |
 +---------------------------------------------------------------+
 |                                                               |
 |   ONETEP is based on developments described in the following  |
 |   publications:                                               |
 |                                                               |
 |  "Nonorthogonal generalized Wannier function pseudopotential  |
 |   plane-wave method".                                         |
 |   C.-K. Skylaris, A. A. Mostofi, P. D. Haynes, O. Dieguez,    |
 |   M. C. Payne.                                                |
 |   Phys. Rev. B 66 035119 (2002).                              |
 |                                                               |
 |  "Preconditioned iterative minimization for linear-scaling    |
 |   electronic structure calculations".                         |
 |   A. A. Mostofi, P. D. Haynes, C.-K. Skylaris, M. C. Payne.   |
 |   J. Chem. Phys. 119(17), pp.8842-8848 (2003).                |
 |                                                               |
 |  "Total-energy calculations on a real space grid with         |
 |   localized functions and a plane-wave basis".                |
 |   A. A. Mostofi, C.-K. Skylaris, P. D. Haynes, M. C. Payne.   |
 |   Comput. Phys. Commun. 147, pp.788-802 (2002).               |
 |                                                               |
 |  "Accurate kinetic energy evaluation in electronic structure  |
 |   calculations with localized functions on real space grids"  |
 |   C.-K. Skylaris, A. A. Mostofi, P. D. Haynes, C. J. Pickard, |
 |   M. C. Payne.                                                |
 |   Comput. Phys. Commun. 140, pp.315-322 (2001).               |
 |                                                               |
 |  "Accurate ionic forces and geometry optimization in linear-  |
 |   scaling density-functional theory with local orbitals"      |
 |   N. D. M. Hine, M. Robinson, P. D. Haynes, C.-K. Skylaris,   |
 |   M. C. Payne, and A. A. Mostofi.                             |
 |   Phys. Rev. B 83 195102 (2011).                              |
 |                                                               |
 +---------------------------------------------------------------+

Job started: 06-06-2020 06:02 (+0100)
 
Reading parameters from file "12/592nano.dat" ...... done

If your calculation crashes here, before "Checking processes and threads..."
is displayed, then your stack size is insufficient.
If so, use "ulimit -s unlimited" at runtime.
You can disable this check with "check_stack_size F".

Checking processes and threads...
   Determining the default number of threads...
      No default threads set at compilation time: defaulting to 1.
      OpenMP library call suggests 4 threads.
      Hybrid MPI-OpenMP compilation detected.
      Number of MPI processes > 1.
      OMP_NUM_THREADS environment variable present and
      its value matches the one obtained from the OpenMP library call.
      Using this value as default.
      Default threads: 4
      Default applies to threads_max and threads_num_fftboxes.
      Settings in the input file override this default.
   ... done

   Running with 140 MPI processes.
   There are 10 MPI processes running on the same node as the root process.
   Each MPI process is using: 
               1 threads for simulation cell FFTs.
               1 threads for parallel FFT box operations.
               4 threads for loops over batched FFT box operations.
               4 threads in other parallel regions.
... done

Basic input checks...
Resetting ngwf_cg_rotate to TRUE for EDFT calculations
... done

Reading geometry and species blocks from file "12/592nano.dat" ...    
  Number of PPD points along a3 set to 1.  This is 
  the default value, it may have been provided also in the input file.
... done
 Writing xyz coordinates to file "12/592nano.xyz" ... done


--------------------------------------------------------------------------------
---------------------------------- INPUT FILE ----------------------------------
--------------------------------------------------------------------------------

task : singlepoint                                                              
do_properties : true                                                            
dx_format T                                                                     
edft T                                                                          
output_detail VERBOSE                                                           
write_xyz T                                                                     
dispersion 4                                                                    
xc_functional PBE                                                               
cutoff_energy 830 eV                                                            
paw T                                                                           
geom_disp_tol 0.015 bohr                                                        
geom_energy_tol 1.5E-6 hartree                                                  
geom_force_tol 0.003 "ha/bohr"                                                  
EDFT_MAXIT 30                                                                   
pdos_max_l = 2                                                                  
dos_smear  0.1 eV                                                               
popn_calculate T                                                                
PDOS_PSEUDOATOMIC T                                                             
PDOS_REDUCE_SWS F                                                               
PDOS_CONSTRUCT_BASIS F                                                          
PDOS_LOWDIN T                                                                   
PDOS_ORTH_ATOM_BLOCKS F                                                         
PDOS_LCAO_OPTIMIZE F                                                            
pdos_optados_output T                                                           
homo_plot 0                                                                     
lumo_plot 0                                                                     
homo_dens_plot -1                                                               
lumo_dens_plot -1                                                               
%BLOCK SPECIES                                                                  
C C 6 4 9.0                                                                     
H H 1 1 9.0                                                                     
Li Li 3 5 9.0                                                                   
%ENDBLOCK SPECIES                                                               
%BLOCK SPECIES_POT                                                              
C "~/pp/paw/c_pbe_abinit.paw"                                                   
H "~/pp/paw/h_pbe_abinit.paw"                                                   
Li "~/pp/paw/li_pbe_abinit.paw"                                                 
%ENDBLOCK SPECIES_POT                                                           
%BLOCK SPECIES_ATOMIC_SET                                                       
C "SOLVE conf=2s2 2p2"                                                          
H "SOLVE conf=1s1"                                                              
Li "SOLVE conf=1s2 2s1 2p0"                                                     
%ENDBLOCK SPECIES_ATOMIC_SET                                                    
%BLOCK LATTICE_CART                                                             
94.486315650000      0.000000000000       0.000000000000                        
0.000000000000       94.486315650000      0.000000000000                        
0.000000000000       0.000000000000       94.486315650000                       
%ENDBLOCK LATTICE_CART                                                          
%BLOCK POSITIONS_ABS                                                            
C 45.491416 50.670505 30.712680                                                 
C 45.422681 50.587054 36.832728                                                 
C 46.835925 53.002490 30.736384                                                 
C 48.110615 50.589452 36.831917                                                 
C 49.534832 48.349315 30.679989                                                 
C 49.455277 48.263823 36.823423                                                 
C 50.875789 50.679590 30.716754                                                 
C 52.143804 48.268506 36.819851                                                 
C 45.490443 55.333822 30.736873                                                 
C 45.426857 55.244157 36.835205                                                 
C 46.833643 57.665407 30.733913                                                 
C 48.112106 55.245467 36.844831                                                 
C 49.525606 53.005910 30.741077                                                 
C 49.454172 52.918365 36.841072                                                 
C 50.868651 55.342130 30.749780                                                 
C 52.141874 52.921000 36.843557                                                 
C 45.407406 50.520704 42.976517                                                 
C 45.351214 50.412308 49.083567                                                 
C 46.752706 52.847013 42.970815                                                 
C 48.042190 50.409718 49.078130                                                 
C 49.435609 48.188085 42.964920                                                 
C 49.387016 48.080029 49.094606                                                 
C 50.780345 50.514189 42.951824                                                 
C 52.079405 48.076018 49.097837                                                 
C 45.413111 55.176003 42.969647                                                 
C 45.356443 55.070860 49.092964                                                 
C 46.762278 57.502272 42.971502                                                 
C 48.046428 55.065068 49.074978                                                 
C 49.440669 52.842693 42.959484                                                 
C 49.389396 52.735779 49.067136                                                 
C 50.786543 55.169109 42.958339                                                 
C 52.082710 52.729886 49.066075                                                 
C 57.627465 48.370354 30.664132                                                 
C 57.520943 48.274686 36.820511                                                 
C 58.966364 50.696659 30.693103                                                 
C 60.238456 48.282658 36.823956                                                 
C 57.502510 48.182013 42.951955                                                 
C 57.462661 48.060675 49.102768                                                 
C 58.845464 50.505719 42.951799                                                 
C 60.183913 48.058136 49.102212                                                 
C 53.571774 50.686443 30.711206                                                 
C 53.484265 50.596186 36.832262                                                 
C 54.911693 53.018303 30.744667                                                 
C 56.179706 50.600564 36.832420                                                 
C 53.468038 50.511471 42.943692                                                 
C 53.426641 50.402377 49.078185                                                 
C 54.812816 52.836898 42.946452                                                 
C 56.123917 50.394539 49.082591                                                 
C 57.649825 43.721177 30.680988                                                 
C 57.526503 43.615321 36.811223                                                 
C 58.980322 46.041717 30.639615                                                 
C 60.244279 43.638762 36.808442                                                 
C 57.501151 43.535434 42.962536                                                 
C 57.458904 43.404408 49.132482                                                 
C 58.840085 45.849228 42.959497                                                 
C 60.176282 43.418446 49.124440                                                 
C 53.586781 46.034185 30.664813                                                 
C 53.490853 45.940523 36.813183                                                 
C 54.927722 48.365905 30.674839                                                 
C 56.184478 45.946909 36.812348                                                 
C 53.466178 45.859862 42.954048                                                 
C 53.422454 45.746135 49.113868                                                 
C 54.808695 48.182797 42.947174                                                 
C 56.119643 45.741990 49.118056                                                 
C 57.591072 57.687654 30.853678                                                 
C 57.512906 57.590709 36.885440                                                 
C 58.928021 60.081527 30.880624                                                 
C 60.230877 57.575850 36.897081                                                 
C 57.514337 57.479854 42.957768                                                 
C 57.472872 57.381808 48.991938                                                 
C 58.861557 59.839793 42.960180                                                 
C 60.215104 57.346701 48.987301                                                 
C 45.478546 64.662143 30.698216                                                 
C 45.445133 64.560700 36.830073                                                 
C 46.848267 67.008969 30.705237                                                 
C 48.116961 64.561921 36.867071                                                 
C 49.512048 62.337268 30.728104                                                 
C 49.464176 62.235116 36.867894                                                 
C 50.869344 64.694614 30.735488                                                 
C 52.146781 62.234877 36.887257                                                 
C 45.425577 64.490176 42.956956                                                 
C 45.391240 64.392638 49.242112                                                 
C 46.802036 66.830349 43.006148                                                 
C 48.067017 64.390395 49.191474                                                 
C 49.455969 62.153914 42.991249                                                 
C 49.412362 62.059258 49.147695                                                 
C 50.821857 64.503286 43.010531                                                 
C 52.095633 62.058256 49.127429                                                 
C 53.549836 60.016004 30.770215                                                 
C 53.488619 59.910808 36.881880                                                 
C 54.899080 62.389274 30.781901                                                 
C 56.177078 59.907321 36.892372                                                 
C 53.485025 59.818715 42.975948                                                 
C 53.429027 59.726099 49.074194                                                 
C 54.843821 62.173131 42.983250                                                 
C 56.130407 59.716595 49.021390                                                 
C 57.606520 53.012731 30.749391                                                 
C 57.516878 52.930410 36.850681                                                 
C 58.946647 55.359052 30.823979                                                 
C 60.234733 52.929752 36.858207                                                 
C 57.507254 52.832366 42.950205                                                 
C 57.470519 52.718189 49.059665                                                 
C 58.850095 55.162386 42.954052                                                 
C 60.200095 52.701514 49.064242                                                 
C 45.487917 59.996445 30.720363                                                 
C 45.433406 59.901043 36.827499                                                 
C 46.832692 62.333926 30.712903                                                 
C 48.115552 59.901677 36.850754                                                 
C 49.522808 57.669240 30.744545                                                 
C 49.456602 57.574197 36.855164                                                 
C 50.864158 60.010371 30.742303                                                 
C 52.143249 57.575770 36.865512                                                 
C 45.421702 59.831781 42.959146                                                 
C 45.370052 59.727541 49.169888                                                 
C 46.772243 62.161761 42.973145                                                 
C 48.057440 59.723870 49.126650                                                 
C 49.448155 57.496985 42.969203                                                 
C 49.396612 57.393886 49.083823                                                 
C 50.798380 59.828220 42.979382                                                 
C 52.087992 57.389601 49.065011                                                 
C 53.558126 55.346748 30.766070                                                 
C 53.484014 55.252315 36.858791                                                 
C 54.889866 57.689566 30.788919                                                 
C 56.177177 55.254824 36.864295                                                 
C 53.474432 55.162595 42.952301                                                 
C 53.430545 55.056675 49.050058                                                 
C 54.823542 57.493812 42.961856                                                 
C 56.126039 55.040038 49.039036                                                 
H 27.259576 41.378894 30.294347                                                 
H 28.247355 39.540289 37.045081                                                 
H 27.252755 41.172535 42.981463                                                 
H 28.154522 39.367828 49.136691                                                 
H 41.843762 30.268171 30.055274                                                 
C 42.890235 32.050712 30.011650                                                 
H 44.506399 30.161820 37.127284                                                 
H 41.717662 30.108445 43.087115                                                 
C 42.763880 31.893330 43.096637                                                 
H 44.363837 29.975084 48.912660                                                 
H 29.583796 37.296128 30.196240                                                 
C 30.634150 39.075221 30.151392                                                 
H 32.277324 37.200247 37.254978                                                 
H 33.692673 34.878060 29.935697                                                 
C 34.724783 36.668030 29.923548                                                 
H 29.584578 37.121331 43.221063                                                 
C 30.609601 38.917584 43.145323                                                 
H 32.198292 37.005084 49.121254                                                 
H 33.620843 34.789119 43.212918                                                 
C 34.663433 36.578163 43.191444                                                 
H 37.802294 32.564595 29.783182                                                 
C 38.814808 34.367690 29.768652                                                 
H 40.436334 32.486071 37.330043                                                 
H 37.674194 32.446920 43.179412                                                 
C 38.711540 34.239351 43.178268                                                 
H 40.284332 32.317440 49.056243                                                 
H 46.490883 30.263037 30.464251                                                 
H 46.391828 30.116293 42.986529                                                 
H 25.878600 48.285996 37.138917                                                 
C 27.946152 48.286323 37.097691                                                 
H 25.854389 48.033603 50.300425                                                 
C 27.911317 48.051073 50.097245                                                 
H 25.893701 43.579103 37.061935                                                 
H 27.257429 46.101946 29.940695                                                 
C 27.961999 43.574555 37.022730                                                 
H 25.836744 43.381497 49.765793                                                 
H 27.266245 45.814660 42.526262                                                 
C 27.904113 43.360818 49.707759                                                 
H 25.924624 57.656908 36.916122                                                 
H 27.334887 60.077239 30.628037                                                 
C 27.992696 57.661357 36.855279                                                 
H 25.812362 57.423530 48.957690                                                 
H 27.253200 59.872067 42.954998                                                 
C 27.874568 57.418516 49.113916                                                 
H 25.905487 53.005110 37.097668                                                 
H 27.330347 55.428488 30.375362                                                 
C 27.973169 52.987954 37.018310                                                 
H 25.788945 52.717044 49.691464                                                 
H 27.250919 55.208882 42.933206                                                 
C 27.857440 52.726910 49.668033                                                 
C 29.323698 41.374810 30.205527                                                 
C 29.267908 41.338013 37.011267                                                 
C 30.603500 43.749370 30.119520                                                 
C 31.966560 41.263556 37.035424                                                 
C 33.328340 38.967430 30.026206                                                 
C 33.321281 38.983152 37.155910                                                 
C 34.690383 41.363996 30.095412                                                 
C 35.990758 38.914713 37.307064                                                 
C 29.326094 46.088017 29.955107                                                 
C 29.242271 45.954524 37.063575                                                 
C 30.639878 48.424302 29.838783                                                 
C 31.965605 45.934266 37.000467                                                 
C 33.349495 43.707272 30.148442                                                 
C 33.307341 43.609166 36.994475                                                 
C 34.711996 46.050939 30.197965                                                 
C 36.006341 43.601088 36.989059                                                 
C 29.318966 41.153287 43.026989                                                 
C 29.191129 41.142044 49.375250                                                 
C 30.612886 43.528387 42.929713                                                 
C 31.897929 41.057247 49.321599                                                 
C 33.314217 38.845370 43.162462                                                 
C 33.241318 38.789758 49.210736                                                 
C 34.656592 41.201540 43.115155                                                 
C 35.908446 38.725932 49.231125                                                 
C 29.325719 45.827681 42.705766                                                 
C 29.204286 45.730064 49.894260                                                 
C 30.603525 48.191249 42.624070                                                 
C 31.912884 45.718985 49.633525                                                 
C 33.319609 43.515858 43.016879                                                 
C 33.246481 43.406953 49.402693                                                 
C 34.653904 45.858289 42.968274                                                 
C 35.934780 43.407485 49.295241                                                 
C 41.469566 39.024906 29.968467                                                 
C 41.411745 38.931975 37.117371                                                 
C 42.812758 41.358249 30.220521                                                 
C 44.102361 38.936241 37.043117                                                 
C 41.370681 38.873749 43.138647                                                 
C 41.306633 38.755225 49.178233                                                 
C 42.717879 41.206388 43.091369                                                 
C 43.990585 38.764383 49.138886                                                 
C 37.420032 41.352046 30.106195                                                 
C 37.354409 41.277887 37.111413                                                 
C 38.756186 43.683137 30.305475                                                 
C 40.049404 41.267059 37.036819                                                 
C 37.345056 41.199800 43.123342                                                 
C 37.269859 41.085174 49.242664                                                 
C 38.688582 43.536894 43.066309                                                 
C 39.962613 41.082661 49.205702                                                 
C 41.471334 34.342696 29.801485                                                 
C 41.455580 34.281551 37.255837                                                 
C 42.851318 36.687976 29.807741                                                 
C 44.116626 34.248843 37.176784                                                 
C 41.342362 34.203711 43.150833                                                 
C 41.316517 34.108553 49.123500                                                 
C 42.721363 36.546321 43.134651                                                 
C 43.957039 34.069911 49.054776                                                 
C 37.405946 36.625956 29.804957                                                 
C 37.374312 36.621329 37.251411                                                 
C 38.778116 39.009291 29.934964                                                 
C 40.043142 36.566377 37.232865                                                 
C 37.325709 36.524177 43.189507                                                 
C 37.281503 36.447153 49.202646                                                 
C 38.685279 38.875976 43.161377                                                 
C 39.929668 36.395165 49.183673                                                 
C 41.451025 48.344248 30.603956                                                 
C 41.391025 48.259276 36.838267                                                 
C 42.796686 50.670795 30.684116                                                 
C 44.078527 48.258946 36.833664                                                 
C 41.375647 48.193336 42.979757                                                 
C 41.313553 48.083164 49.147495                                                 
C 42.720512 50.522765 42.970430                                                 
C 44.005477 48.082710 49.109049                                                 
C 29.399544 55.419568 30.400904                                                 
C 29.276140 55.273554 36.897172                                                 
C 30.693056 57.710900 30.539686                                                 
C 31.991386 55.279571 36.829922                                                 
C 33.390200 53.064556 30.376175                                                 
C 33.327518 52.945669 36.861502                                                 
C 34.735420 55.372877 30.545262                                                 
C 36.019991 52.928803 36.815669                                                 
C 29.318326 55.204221 42.941981                                                 
C 29.140773 55.039201 49.342234                                                 
C 30.607067 57.503744 42.915344                                                 
C 31.884755 55.075775 49.345671                                                 
C 33.314173 52.860700 42.923539                                                 
C 33.244763 52.738716 49.408734                                                 
C 34.656531 55.183457 42.915229                                                 
C 35.931564 52.745025 49.285506                                                 
C 37.415432 50.690555 30.514445                                                 
C 37.358251 50.594421 36.830737                                                 
C 38.764747 53.016199 30.629475                                                 
C 40.048760 50.589225 36.821653                                                 
C 37.344793 50.523843 42.952630                                                 
C 37.279941 50.413847 49.247507                                                 
C 38.689225 52.852358 42.945091                                                 
C 39.972461 50.413749 49.165109                                                 
C 41.456115 43.681111 30.376546                                                 
C 41.392230 43.595767 36.921113                                                 
C 42.800486 46.011471 30.541956                                                 
C 44.084864 43.598003 36.883359                                                 
C 41.373549 43.536171 43.058228                                                 
C 41.313469 43.417581 49.175416                                                 
C 42.717554 45.865354 43.014935                                                 
C 44.002216 43.421330 49.141481                                                 
C 29.376211 50.765377 29.999361                                                 
C 29.240551 50.637254 37.066754                                                 
C 30.677021 53.084317 30.250778                                                 
C 31.975369 50.623328 36.972955                                                 
C 33.378518 48.393958 30.110750                                                 
C 33.318458 48.279726 36.961377                                                 
C 34.720304 50.715094 30.332211                                                 
C 36.014741 48.267904 36.873753                                                 
C 29.310321 50.528205 42.725327                                                 
C 29.165916 50.419201 49.874205                                                 
C 30.594871 52.860903 42.887085                                                 
C 31.904226 50.412584 49.633063                                                 
C 33.321326 48.185466 42.856544                                                 
C 33.251400 48.080025 49.559044                                                 
C 34.654510 50.526539 42.920579                                                 
C 35.942641 48.081609 49.330529                                                 
C 37.404954 46.025652 30.363806                                                 
C 37.356059 45.933571 36.898956                                                 
C 38.754746 48.352133 30.506818                                                 
C 40.043888 45.927124 36.876562                                                 
C 37.347205 45.863068 43.011588                                                 
C 37.281477 45.749481 49.267412                                                 
C 38.686279 48.193948 42.971594                                                 
C 39.966997 45.749363 49.190916                                                 
C 45.474365 32.049536 30.240963                                                 
C 45.544414 31.947623 37.074764                                                 
C 46.903786 34.343270 30.271702                                                 
C 48.124645 31.966071 36.935404                                                 
H 49.174970 30.184393 36.872422                                                 
H 50.548304 32.577033 30.764072                                                 
C 45.535921 36.684494 30.084829                                                 
C 45.481045 36.598697 37.069542                                                 
C 46.873294 39.021973 30.274832                                                 
C 48.160359 36.611142 36.938597                                                 
C 49.536182 34.368642 30.558583                                                 
C 49.534211 34.275941 36.899677                                                 
C 50.925877 36.639454 30.665052                                                 
C 52.173293 34.321396 36.837969                                                 
C 45.342896 31.896614 43.040326                                                 
C 45.398682 31.762228 48.985678                                                 
C 46.771449 34.204275 43.040971                                                 
C 48.015060 31.763363 48.992761                                                 
H 49.052352 29.976355 48.930602                                                 
H 50.429311 32.446745 42.957081                                                 
C 45.395542 36.548049 43.081891                                                 
C 45.354655 36.429749 49.069730                                                 
C 46.750906 38.872403 43.052651                                                 
C 48.048342 36.430928 49.062505                                                 
C 49.397709 34.238730 42.995370                                                 
C 49.448149 34.073915 49.036353                                                 
C 50.798862 36.522781 42.992929                                                 
C 52.093353 34.117696 49.098601                                                 
H 53.211897 32.530808 36.811876                                                 
H 53.130760 32.327981 49.059646                                                 
C 57.665624 39.091766 30.825672                                                 
C 57.549576 38.936389 36.816140                                                 
C 58.999562 41.365574 30.704926                                                 
C 60.262315 39.017126 36.808645                                                 
C 57.502717 38.916642 42.968446                                                 
C 57.470101 38.729547 49.155883                                                 
C 58.844640 41.172866 42.967025                                                 
C 60.181569 38.798608 49.144167                                                 
C 45.493591 46.012608 30.581093                                                 
C 45.426276 45.929899 36.839410                                                 
C 46.839799 48.343205 30.672327                                                 
C 48.113058 45.932458 36.824890                                                 
C 49.547142 43.693494 30.573063                                                 
C 49.464066 43.605779 36.828155                                                 
C 50.891568 46.022864 30.643419                                                 
C 52.154104 43.612794 36.816803                                                 
C 45.405935 45.862906 43.008799                                                 
C 45.350855 45.754017 49.115215                                                 
C 46.748587 48.190315 42.982854                                                 
C 48.040295 45.753574 49.112659                                                 
C 49.434820 43.532836 42.989162                                                 
C 49.388626 43.422621 49.125721                                                 
C 50.777343 45.858432 42.965247                                                 
C 52.077677 43.420225 49.129426                                                 
C 53.616659 41.378786 30.755184                                                 
C 53.507797 41.282947 36.825189                                                 
C 54.953771 43.710128 30.694501                                                 
C 56.197457 41.295703 36.816969                                                 
C 53.467631 41.204255 42.970488                                                 
C 53.428389 41.084903 49.140075                                                 
C 54.810992 43.526676 42.960949                                                 
C 56.123096 41.089450 49.147414                                                 
H 57.255571 34.883898 36.812221                                                 
H 58.711860 37.308540 30.906375                                                 
H 57.165854 34.673195 49.147052                                                 
H 58.538507 37.125854 42.965304                                                 
C 45.512219 41.358831 30.313138                                                 
C 45.443009 41.277186 36.917560                                                 
C 46.849462 43.683530 30.493076                                                 
C 48.128026 41.276621 36.866852                                                 
C 49.551539 39.014296 30.512338                                                 
C 49.490311 38.943830 36.876913                                                 
C 50.903699 41.361613 30.624218                                                 
C 52.172716 38.952768 36.842933                                                 
C 45.402728 41.204978 43.058348                                                 
C 45.349239 41.092558 49.133474                                                 
C 46.749398 43.532834 43.019278                                                 
C 48.043979 41.093493 49.127178                                                 
C 49.435467 38.874096 43.009887                                                 
C 49.402912 38.767590 49.115314                                                 
C 50.781734 41.197991 42.987703                                                 
C 52.089329 38.760247 49.134692                                                 
C 53.606619 36.707438 30.860589                                                 
C 53.540650 36.604642 36.836604                                                 
C 54.993922 39.007776 30.880263                                                 
C 56.213157 36.672713 36.818313                                                 
C 53.453600 36.575238 42.973175                                                 
C 53.458856 36.403609 49.133411                                                 
C 54.823354 38.849052 42.971242                                                 
C 56.125881 36.463829 49.157203                                                 
H 61.286935 37.219821 36.812790                                                 
H 62.730708 39.649273 30.660814                                                 
H 61.198878 36.996533 49.127458                                                 
H 62.571426 39.444157 42.962731                                                 
H 28.285257 61.691935 36.729832                                                 
H 28.166486 61.486922 48.999724                                                 
C 29.402285 60.094475 30.608643                                                 
C 29.293785 59.887052 36.756964                                                 
C 30.696309 62.327284 30.643183                                                 
C 32.002767 59.952880 36.716817                                                 
C 33.403300 57.714602 30.582624                                                 
C 33.338668 57.589663 36.758959                                                 
C 34.745977 60.026965 30.632071                                                 
C 36.028011 57.588922 36.752290                                                 
H 29.680964 64.129284 30.686636                                                 
H 32.323810 64.001148 36.627960                                                 
C 33.405289 62.389250 30.640027                                                 
C 33.354308 62.207977 36.665001                                                 
C 34.758085 64.650813 30.645051                                                 
C 36.027559 62.267540 36.681062                                                 
C 29.320745 59.888176 42.879738                                                 
C 29.196529 59.702171 49.143270                                                 
C 30.598559 62.127323 42.715425                                                 
C 31.888398 59.794162 49.381669                                                 
C 33.315150 57.517367 42.857747                                                 
C 33.231313 57.408402 49.367207                                                 
C 34.652199 59.835770 42.706162                                                 
C 35.944850 57.414725 49.415541                                                 
H 29.570769 63.921396 42.658529                                                 
H 32.224916 63.859010 49.681973                                                 
C 33.305683 62.204339 42.588872                                                 
C 33.259396 62.069058 49.649293                                                 
C 34.673234 64.484305 42.493430                                                 
C 35.935786 62.112624 49.843016                                                 
C 41.460642 57.669529 30.709087                                                 
C 41.401804 57.573906 36.795548                                                 
C 42.804850 59.998009 30.705912                                                 
C 44.085818 57.573242 36.821294                                                 
C 41.385761 57.510698 42.910868                                                 
C 41.323299 57.407876 49.235068                                                 
C 42.735734 59.837180 42.909004                                                 
C 44.015941 57.403024 49.152433                                                 
C 37.432257 60.019796 30.659760                                                 
C 37.376649 59.909409 36.727645                                                 
C 38.776919 62.340180 30.661926                                                 
C 40.060635 59.910161 36.759709                                                 
C 37.358917 59.842177 42.720404                                                 
C 37.296348 59.737729 49.566979                                                 
C 38.715393 62.176301 42.672759                                                 
C 39.985330 59.744851 49.409044                                                 
C 41.454640 53.006554 30.694490                                                 
C 41.395489 52.916862 36.817481                                                 
C 42.801624 55.335005 30.721245                                                 
C 44.081452 52.915459 36.830309                                                 
C 41.379490 52.852056 42.954587                                                 
C 41.317812 52.745764 49.138259                                                 
C 42.725230 55.178890 42.954992                                                 
C 44.006522 52.742620 49.094930                                                 
C 37.429029 55.356340 30.630253                                                 
C 37.369014 55.252210 36.784189                                                 
C 38.773446 57.677245 30.675641                                                 
C 40.055501 55.248722 36.797561                                                 
C 37.351131 55.181533 42.909635                                                 
C 37.281687 55.082689 49.275457                                                 
C 38.700199 57.506380 42.862686                                                 
C 39.973999 55.080411 49.209656                                                 
C 41.435761 67.011311 30.662915                                                 
C 41.451849 66.873769 36.765872                                                 
C 42.852643 69.325854 30.675543                                                 
C 44.075202 66.907591 36.821537                                                 
C 41.384149 66.846626 42.809085                                                 
C 41.389787 66.704108 49.428730                                                 
C 42.806292 69.153792 42.913264                                                 
C 44.027190 66.733933 49.292063                                                 
H 37.773709 68.774220 30.652885                                                 
H 40.418691 68.665764 36.759827                                                 
H 37.729282 68.620423 42.576296                                                 
H 40.366051 68.503440 49.459532                                                 
C 41.458820 62.335804 30.683007                                                 
C 41.410755 62.233581 36.762298                                                 
C 42.806541 64.662574 30.677055                                                 
C 44.090762 62.235084 36.805853                                                 
C 41.401512 62.174170 42.826012                                                 
C 41.353319 62.073738 49.409303                                                 
C 42.752067 64.499091 42.870947                                                 
C 44.028930 62.066180 49.262155                                                 
H 33.727374 66.446505 30.657551                                                 
H 33.636475 66.273324 42.443314                                                 
C 37.422377 64.695889 30.649068                                                 
C 37.403721 64.540172 36.676350                                                 
C 38.806574 66.979853 30.648769                                                 
C 40.053912 64.587583 36.728466                                                 
C 37.359430 64.546858 42.545540                                                 
C 37.334996 64.384958 49.769084                                                 
C 38.755007 66.824301 42.644503                                                 
C 40.003370 64.430020 49.548524                                                 
C 61.705011 41.444673 30.638540                                                 
C 61.540998 41.254057 36.808013                                                 
C 62.989323 43.687808 30.598772                                                 
H 63.607315 41.282060 36.815682                                                 
C 61.693907 46.063509 30.616253                                                 
C 61.522548 45.931529 36.816049                                                 
C 62.980457 48.367523 30.631192                                                 
H 63.590673 45.933556 36.825001                                                 
H 65.057836 43.708070 30.595208                                                 
C 61.559191 41.246854 42.965951                                                 
C 61.470745 41.034444 49.118593                                                 
C 62.850850 43.477162 42.964704                                                 
H 63.538826 41.055552 49.071806                                                 
C 61.557797 45.864165 42.962374                                                 
C 61.464342 45.711074 49.098447                                                 
C 62.844148 48.159782 42.958292                                                 
H 63.533602 45.707736 49.052867                                                 
H 64.920585 43.491159 42.962178                                                 
C 61.687616 55.336921 30.824865                                                 
C 61.513912 55.284929 36.887979                                                 
C 62.963531 57.741224 30.874383                                                 
H 63.582626 55.286072 36.909271                                                 
H 65.050670 53.036984 30.745192                                                 
C 61.567554 55.140226 42.953102                                                 
C 61.495806 55.038211 49.031923                                                 
C 62.864392 57.524035 42.951547                                                 
H 63.563272 55.034748 48.986629                                                 
H 64.921271 52.837886 42.949258                                                 
C 61.693802 50.698260 30.681446                                                 
C 61.519416 50.607590 36.846372                                                 
C 62.981575 53.032453 30.727403                                                 
H 65.049915 48.367257 30.638052                                                 
C 61.560504 50.502303 42.954199                                                 
C 61.476455 50.377511 49.078218                                                 
C 62.849398 52.839513 42.952532                                                 
H 64.915868 48.156028 42.958237                                                 
H 41.802610 71.107706 30.684249                                                 
H 44.445115 70.999686 36.887429                                                 
H 41.766495 70.941826 42.898437                                                 
H 44.398381 70.823566 49.198431                                                 
C 45.430002 69.324385 30.703323                                                 
C 45.496988 69.220151 36.875238                                                 
H 46.483925 71.102844 30.741489                                                 
C 48.073646 69.221217 36.913652                                                 
C 49.474442 66.979306 30.735607                                                 
C 49.490159 66.906720 36.902582                                                 
H 50.506459 68.772593 30.777256                                                 
C 52.120842 66.869906 36.925161                                                 
H 49.122327 71.004256 36.954594                                                 
C 45.383585 69.142012 43.009591                                                 
C 45.445089 69.041499 49.226151                                                 
H 46.436264 70.919376 43.077354                                                 
C 48.028340 69.041601 49.194330                                                 
C 49.429301 66.790089 43.031614                                                 
C 49.439634 66.731930 49.195414                                                 
H 50.464363 68.580452 43.058245                                                 
C 52.078467 66.697512 49.189805                                                 
H 49.078200 70.822816 49.147491                                                 
H 57.205477 66.324430 36.944515                                                 
H 57.163185 66.163163 49.135482                                                 
H 53.154922 68.663724 36.949778                                                 
H 53.112458 68.490781 49.185165                                                 
C 57.568290 62.345589 30.833875                                                 
C 57.518662 62.270401 36.913763                                                 
H 58.597010 64.138274 30.895519                                                 
C 60.231077 62.199898 36.928468                                                 
C 57.522400 62.099469 42.967126                                                 
C 57.480072 62.102956 49.045362                                                 
H 58.559782 63.889420 42.954695                                                 
C 60.200332 62.010686 49.022666                                                 
C 53.521966 64.657622 30.768776                                                 
C 53.502900 64.586131 36.912509                                                 
C 56.171102 64.530925 36.924825                                                 
C 53.477118 64.448311 42.999643                                                 
C 53.458209 64.419491 49.156490                                                 
C 56.125866 64.372153 49.137437                                                 
C 61.647638 60.000551 30.916581                                                 
C 61.518997 59.966418 36.925259                                                 
H 62.667171 61.796970 30.973876                                                 
H 63.585994 59.946805 36.952095                                                 
H 65.031066 57.745500 30.898690                                                 
H 61.248791 64.001378 36.956347                                                 
C 61.575410 59.758047 42.950213                                                 
C 61.502518 59.744308 48.979424                                                 
H 62.592862 61.558171 42.932289                                                 
H 63.567616 59.734219 48.937936                                                 
H 64.934342 57.506198 42.935680                                                 
H 61.233083 63.800953 49.015223                                                 
H 63.544767 50.370657 49.038787                                                 
H 36.244182 34.658556 49.156550                                                 
H 36.314830 66.183884 49.854294                                                 
H 27.251692 50.532967 42.530869                                                 
H 54.512196 66.239182 43.000797                                                 
H 63.587249 50.608093 36.858787                                                 
H 54.488239 34.784539 42.960291                                                 
H 36.340933 34.836414 37.389633                                                 
H 36.371692 66.331709 36.646507                                                 
H 54.548187 66.453363 30.816138                                                 
H 27.306782 50.785420 29.940160                                                 
H 54.635412 34.927820 31.068312                                                 
Li 31.837241 41.383243 26.819290                                                
Li 30.366783 48.310307 33.633633                                                
Li 58.842494 59.663692 52.352679                                                
Li 36.021887 38.616899 33.445803                                                
Li 60.285551 57.752360 27.524901                                                
Li 42.703077 36.292670 33.708134                                                
Li 30.315247 57.470605 52.592941                                                
Li 35.932707 62.461004 46.030759                                                
Li 46.709197 34.071299 52.375870                                                
Li 30.083469 48.084285 46.411418                                                
Li 52.714545 38.880025 27.414754                                                
Li 35.994240 36.994080 46.242600                                                
%ENDBLOCK POSITIONS_ABS                                                         

--------------------------------------------------------------------------------
-------------------------------- END INPUT FILE --------------------------------
--------------------------------------------------------------------------------


 
<<<<<<<<<<<<<<<<<<<<<<<<<<<<<<<<< Full system >>>>>>>>>>>>>>>>>>>>>>>>>>>>>>>>>>
<<<<<<<<<<<<<<<<<<<<<<<<<<< PAW Dataset information >>>>>>>>>>>>>>>>>>>>>>>>>>>
File: ~/pp/paw/c_pbe_abinit.paw; rc = 1.25 bohr; shape type =  3; rshape = 1.25 bohr;
  Atomic number:  6;  ionic charge:  4.000000
    Partial Wave 1: l = 0
    Partial Wave 2: l = 0
    Partial Wave 3: l = 1
    Partial Wave 4: l = 1
  Core charge supplied for Nonlinear Core Corrections
File: ~/pp/paw/h_pbe_abinit.paw; rc = 0.90 bohr; shape type =  3; rshape = 0.90 bohr;
  Atomic number:  1;  ionic charge:  1.000000
    Partial Wave 1: l = 0
    Partial Wave 2: l = 0
File: ~/pp/paw/li_pbe_abinit.paw; rc = 1.42 bohr; shape type =  3; rshape = 1.42 bohr;
  Atomic number:  3;  ionic charge:  3.000000
    Partial Wave 1: l = 0
    Partial Wave 2: l = 0
    Partial Wave 3: l = 0
    Partial Wave 4: l = 1
    Partial Wave 5: l = 1
<<<<<<<<<<<<<<<<<<<<<<<<<<<<<<<<<<<<<<< >>>>>>>>>>>>>>>>>>>>>>>>>>>>>>>>>>>>>>>

-------------------------- Atom counting information ---------------------------
Symbol    Natoms    Nngwfs    Nprojs
  C        484      1936      3872
  H        108       108       216
  Li        12        60       108
.......   ......    ......    ......
Totals:    604      2104      4196
--------------------------------------------------------------------------------

=============================== PSINC grid sizes ===============================
                      Simulation cell:  189 x 189 x 189
                              FFT-box:  117 x 117 x 117
                                  PPD:    7 x   7 x   1
Grid space d1=  0.499927596032a0 (KE cutoff=  30.39413Eh = 827.06648eV)
Grid space d2=  0.499927596032a0 (KE cutoff=  30.39413Eh = 827.06648eV)
Grid space d3=  0.499927596032a0 (KE cutoff=  30.39413Eh = 827.06648eV)
================================================================================
  
WARNING in cell_grid_distribute:
Average of less than one 23-slab per node, so workload cannot be
equally balanced between nodes.

********************* Fourier parallelisation information **********************
       Coarse grid (whole simulation cell) dimensions:    189   189   189
          Real-space ('12') slabs/node (min max mean):      1     2     1
         Recip-space ('23') slabs/node (min max mean):      0     1     0
********************************************************************************

********************* Fourier parallelisation information **********************
       Double grid (whole simulation cell) dimensions:    378   378   378
          Real-space ('12') slabs/node (min max mean):      2     3     2
         Recip-space ('23') slabs/node (min max mean):      1     2     1
********************************************************************************

Atom SCF Calculation for C  : Z (AE atom) =   6 : Z (PS atom) =   4
Config String: 2s2 2p2
Orbitals (num,occ):  2     2.00 2.00
Orbitals   (num,l):  2        0    1
Real-space Grid (nr,dr,rmax): 1377    0.0065406977    9.0000000000
Spherical Bessel Basis (nsws,lmax,cutoff):   37    2  183.0099912382
Confining potential (l,width,scale):  0    3.0000000000  100.0000000000
Confining potential (l,width,scale):  1    3.0000000000  100.0000000000
  1         -5.4350126632   -1.2715272878    4.5135247139   -1.5681949477
  2         -5.3876836850   -1.3562195125    4.4235426751   -1.5380057521
  3         -5.3928844498   -1.3758175853    4.4021699684   -1.5318377811
  4         -5.3988962903   -1.3800385428    4.3975423583   -1.5307324410
  5         -5.4018428823   -1.3823489590    4.3950111904   -1.5301555648
  6         -5.4033571720   -1.3835805046    4.3936635548   -1.5298576834
  7         -5.4041480647   -1.3842324820    4.3929512000   -1.5297032953
  8         -5.4045641108   -1.3845769138    4.3925755232   -1.5296229456
  9         -5.4047838258   -1.3847587737    4.3923775340   -1.5295810042
 10         -5.4049001347   -1.3848548089    4.3922731819   -1.5295590658
 11         -5.4049618018   -1.3849055476    4.3922181562   -1.5295475724
 12         -5.4049945351   -1.3849323732    4.3921891206   -1.5295415432
 13         -5.4050119258   -1.3849465673    4.3921737867   -1.5295383767
 14         -5.4050211723   -1.3849540841    4.3921656816   -1.5295367119
 15         -5.4050260920   -1.3849580684    4.3921613935   -1.5295358358
 16         -5.4050287113   -1.3849601822    4.3921591228   -1.5295353742
 17         -5.4050301068   -1.3849613045    4.3921579192   -1.5295351307
 18         -5.4050308507   -1.3849619010    4.3921572806   -1.5295350022
 19         -5.4050312476   -1.3849622183    4.3921569415   -1.5295349343
 20         -5.4050314594   -1.3849623873    4.3921567612   -1.5295348984
 21         -5.4050315725   -1.3849624773    4.3921566653   -1.5295348794
 22         -5.4050316330   -1.3849625253    4.3921566143   -1.5295348693
Atom SCF converged after  22 iterations to a total energy of     -5.40503163

Atom SCF Calculation for H  : Z (AE atom) =   1 : Z (PS atom) =   1
Config String: 1s1
Orbitals (num,occ):  1     1.00
Orbitals   (num,l):  1        0
Real-space Grid (nr,dr,rmax): 1377    0.0065406977    9.0000000000
Spherical Bessel Basis (nsws,lmax,cutoff):   37    1  183.0099912382
Confining potential (l,width,scale):  0    3.0000000000  100.0000000000
  1         -0.3605254152   -0.2399954029    0.2820952946   -0.2424203210
  2         -0.4156854077   -0.2398249290    0.2871789324   -0.2464796203
  3         -0.4412552402   -0.2379720642    0.2899127187   -0.2499011370
  4         -0.4517265951   -0.2371980236    0.2908966173   -0.2514141636
  5         -0.4557775773   -0.2369735141    0.2911607883   -0.2519713623
  6         -0.4573363459   -0.2369240355    0.2912108681   -0.2521663171
  7         -0.4579443228   -0.2369187864    0.2912112833   -0.2522344454
  8         -0.4581858602   -0.2369215483    0.2912049187   -0.2522587615
  9         -0.4582834939   -0.2369242589    0.2912002081   -0.2522677042
 10         -0.4583235236   -0.2369258837    0.2911975892   -0.2522710965
 11         -0.4583401154   -0.2369267223    0.2911962825   -0.2522724192
 12         -0.4583470483   -0.2369271266    0.2911956643   -0.2522729467
 13         -0.4583499624   -0.2369273145    0.2911953803   -0.2522731607
 14         -0.4583511926   -0.2369274000    0.2911952521   -0.2522732486
 15         -0.4583517136   -0.2369274385    0.2911951948   -0.2522732850
 16         -0.4583519349   -0.2369274556    0.2911951693   -0.2522733002
 17         -0.4583520290   -0.2369274632    0.2911951581   -0.2522733066
Atom SCF converged after  17 iterations to a total energy of     -0.45835203

Atom SCF Calculation for Li : Z (AE atom) =   3 : Z (PS atom) =   3
Config String: 1s2 2s1 2p0
Orbitals (num,occ):  3     2.00 1.00 0.00
Orbitals   (num,l):  3        0    0    1
Real-space Grid (nr,dr,rmax): 1377    0.0065406977    9.0000000000
Spherical Bessel Basis (nsws,lmax,cutoff):   37    2  183.0099912382
Confining potential (l,width,scale):  0    3.0000000000  100.0000000000
Confining potential (l,width,scale):  1    3.0000000000  100.0000000000
  1         -6.0640888065   -4.6655401716    2.5388576516   -0.9989538799
  2         -6.9627542978   -4.0954079129    2.9808988108   -1.1965571426
  3         -7.2692687601   -3.8889996707    3.2029735703   -1.3193883705
  4         -7.3784440298   -3.8322099748    3.2868571989   -1.3711018151
  5         -7.4170278248   -3.8191968371    3.3144974220   -1.3911175539
  6         -7.4303549880   -3.8172386945    3.3228486489   -1.3986896266
  7         -7.4348052089   -3.8175483495    3.3251259310   -1.4015352495
  8         -7.4362242328   -3.8180607346    3.3256233205   -1.4026016384
  9         -7.4366459715   -3.8184145665    3.3256561549   -1.4029998726
 10         -7.4367560626   -3.8186169740    3.3256001574   -1.4031477379
 11         -7.4367765260   -3.8187239825    3.3255481763   -1.4032021548
 12         -7.4367751741   -3.8187782620    3.3255144587   -1.4032219192
 13         -7.4367707398   -3.8188051288    3.3254952336   -1.4032289600
 14         -7.4367680349   -3.8188156035    3.3254870176   -1.4032309087
 15         -7.4367661982   -3.8188217406    3.3254819951   -1.4032318132
 16         -7.4367650112   -3.8188253257    3.3254789583   -1.4032322224
 17         -7.4367642682   -3.8188274151    3.3254771375   -1.4032324006
 18         -7.4367638134   -3.8188286307    3.3254760529   -1.4032324736
 19         -7.4367635392   -3.8188293370    3.3254754103   -1.4032325004
 20         -7.4367633760   -3.8188297469    3.3254750310   -1.4032325080
 21         -7.4367632796   -3.8188299846    3.3254748079   -1.4032325082
Atom SCF converged after  21 iterations to a total energy of     -7.43676328

Determining parallel strategy ...
... using space-filling curve
... NGWF load balancing: max     17;  min     13;  average     15
... Projector load balancing: max     34;  min     26;  average     30
... done
Calculating Ewald energy ...
              Ewald: real-space energy =   35996.536481
        Ewald: reciprocal-space energy =   34411.340279
         Ewald: (sum_charge)**2 Energy =    2708.416474
         Ewald: (sum_charge**2) Energy =     244.934696
                          Ewald Energy =   67454.525590
======================= Empirical dispersion information =======================
Model : Grimme D2
Dispersion Correction Energy: -0.19312554E+01 Hartree
================================================================================
Basis initialisation ...... NGWF spheres initialised
... Projector spheres initialised
... NGWF tight boxes initialised
... Projector tight boxes initialised
... Tight-boxes gathered
... NGWF basis size (local,global):     271318  38782496
... PAW projector initialisation
... done

============================= Charge Augmentation ==============================
                           Aug box size:   13 x  13 x  13
================================================================================

========================== Sparse matrix information ===========================
                        Overlap matrix filling:  38.79%
                        Density kernel filling: 100.00%
              NGWF-Proj overlap matrix filling:  11.02%
                    Aug Overlap matrix filling:  42.97%
                    Hamiltonian matrix filling:  42.97%
                  NGWF diagonal matrix filling:   0.18%
                             KS matrix filling: 100.00% 
                           KSKS matrix filling: 100.00% 
================================================================================

Sparse matrix initialisation ... done
NGWF initialisation ...... done
============ Calculation of NGWF S^-1 using Hotelling algorithm ================ 
         Iteration  |  Frobenius norm and Maximum abs value    (of I-S*S_n^-1)   
               1       0.45545674E+02     0.99625311E+00
               2       0.45237896E+02     0.99252894E+00
               3       0.44665794E+02     0.98514671E+00
               4       0.43669432E+02     0.97063392E+00
               5       0.42111299E+02     0.94252891E+00
               6       0.39994907E+02     0.88950032E+00
               7       0.37424345E+02     0.79381456E+00
               8       0.34463049E+02     0.76958189E+00
               9       0.31345014E+02     0.74958536E+00
              10       0.28365732E+02     0.73488301E+00
              11       0.25259450E+02     0.71786701E+00
              12       0.21359291E+02     0.70222454E+00
              13       0.16203851E+02     0.67496089E+00
              14       0.10067115E+02     0.62775381E+00
              15       0.44956719E+01     0.54791271E+00
              16       0.12820934E+01     0.42122053E+00
              17       0.38583811E+00     0.25065117E+00
              18       0.12659825E+00     0.89054442E-01
              19       0.15968398E-01     0.11252734E-01
              20       0.25498905E-03     0.17968768E-03
              21       0.65019415E-07     0.45818394E-07
              22       0.43220094E-13     0.33306691E-14
================================================================================
Calculating core density ...
================================= Core Density =================================
               Core den box size:   21 x  21 x  21
================================================================================
 ... done
Up spin density kernel initialisation ...... done

Writing density kernel to file "12/592nano.dkn" ... done

>>> Optimising kernel for current NGWFs:

--------------------------- Ensemble-DFT optimisation --------------------------
Running ScaLAPACK on  140 processor(s).

--------------------------------------------------------------------------------
  Iter                              Commutator    Free_energy(A=E-TS)     DeltaA
#    0                          0.000925441464   -2905.38214684053128  -2.91E+03

Step                       =       0.381966011250
Energy                     =   -2905.351237901478
Entropy (-TS)              =      -0.030908939208
Free energy (A=E-TS)       =   -2905.382146840531
Est. 0K Energy 0.5*(E+A)   =   -2905.366692371005
Residual Non-orthogonality =       0.000000000000
Residual N_electrons       =       0.000000000155

Spin          Integrated_Ne            Fermi_level     Delta_Fermi_level
   1      2080.000000000621        -0.249914406077             -2.50E-01

                           Spin 1          
     Orb      H-eigenvalues     Occupancies
       1 |    -1.9185598701    1.0000000000 | 
                          ------
    1036 |    -0.2593106849    0.9510659667 | 
    1037 |    -0.2553407318    0.8472894689 | 
    1038 |    -0.2550050199    0.8330624429 | 
    1039 |    -0.2530259892    0.7276159354 | 
    1040 |    -0.2521614717    0.6703055239 | 
                 - Gap at zero temperature -
    1041 |    -0.2473945970    0.3109476242 | 
    1042 |    -0.2461586621    0.2339804391 | 
    1043 |    -0.2447133890    0.1621453658 | 
    1044 |    -0.2438253629    0.1275532349 | 
    1045 |    -0.2411201136    0.0585787867 | 
                          ------
    2104 |     0.5654514983    0.0000000000 | 

                       |  Abs_value |  Threshold | Converged
     Delta_Free_energy |   2.91E+03 |   1.00E-06 |        No
     Delta_Energy      |   2.91E+03 |   1.00E-04 |        No
     Delta_Entropy     |   3.09E-02 |   1.00E-04 |        No
     Commutator        |   9.25E-04 |   1.00E-05 |        No
     Delta_Fermi_level |   2.50E-01 |   1.00E-03 |        No

  Line search of the free energy minimum:
  Step_type        Step             Free_energy   Predicted_free_energy
.   Initial    0.000000    -2905.38214684053128
.    Trial1    0.381966    -2904.68450621303600
.    Trial2    0.145898    -2905.87705887220545
. Quadratic    0.149673    -2905.88041335142316    -2905.87737385229184

--------------------------------------------------------------------------------
  Iter                              Commutator    Free_energy(A=E-TS)     DeltaA
#    1                          0.000605139687   -2905.88041335142316  -4.98E-01

Step                       =       0.149672730509
Energy                     =   -2905.852581982792
Entropy (-TS)              =      -0.027831368842
Free energy (A=E-TS)       =   -2905.880413351423
Est. 0K Energy 0.5*(E+A)   =   -2905.866497667108
Residual Non-orthogonality =       0.000000000000
Residual N_electrons       =       0.000000000210

Spin          Integrated_Ne            Fermi_level     Delta_Fermi_level
   1      2080.000000000906        -0.232372249947              1.75E-02

                           Spin 1          
     Orb      H-eigenvalues     Occupancies
       1 |    -1.9124347476    1.0000000000 | 
                          ------
    1036 |    -0.2469411479    0.9900530672 | 
    1037 |    -0.2407021621    0.9327912704 | 
    1038 |    -0.2393248209    0.8998400269 | 
    1039 |    -0.2346791152    0.6744651452 | 
    1040 |    -0.2329981411    0.5492499905 | 
                 - Gap at zero temperature -
    1041 |    -0.2298501627    0.3107935056 | 
    1042 |    -0.2291892627    0.2679383290 | 
    1043 |    -0.2278400926    0.1929207827 | 
    1044 |    -0.2248241027    0.0844383147 | 
    1045 |    -0.2233085439    0.0540596154 | 
                          ------
    2104 |     0.5870767378    0.0000000000 | 

                       |  Abs_value |  Threshold | Converged
     Delta_Free_energy |   4.98E-01 |   1.00E-06 |        No
     Delta_Energy      |   5.01E-01 |   1.00E-04 |        No
     Delta_Entropy     |   3.08E-03 |   1.00E-04 |        No
     Commutator        |   6.05E-04 |   1.00E-05 |        No
     Delta_Fermi_level |   1.75E-02 |   1.00E-03 |        No

  Line search of the free energy minimum:
  Step_type        Step             Free_energy   Predicted_free_energy
.   Initial    0.000000    -2905.88041335142316
.    Trial1    0.149673    -2905.99216513764441
.    Trial2    0.474469    -2904.42323918338252
. Quadratic    0.106596    -2906.01424950121600    -2906.01397660467228

--------------------------------------------------------------------------------
  Iter                              Commutator    Free_energy(A=E-TS)     DeltaA
#    2                          0.000471906493   -2906.01424950121600  -1.34E-01

Step                       =       0.106596203516
Energy                     =   -2905.984078709584
Entropy (-TS)              =      -0.030170791934
Free energy (A=E-TS)       =   -2906.014249501216
Est. 0K Energy 0.5*(E+A)   =   -2905.999164105400
Residual Non-orthogonality =       0.000000000000
Residual N_electrons       =       0.000000000301

Spin          Integrated_Ne            Fermi_level     Delta_Fermi_level
   1      2080.000000001349        -0.223358634438              9.01E-03

                           Spin 1          
     Orb      H-eigenvalues     Occupancies
       1 |    -1.9101594855    1.0000000000 | 
                          ------
    1036 |    -0.2331104671    0.9560343559 | 
    1037 |    -0.2303968904    0.9022523900 | 
    1038 |    -0.2279363571    0.8093096265 | 
    1039 |    -0.2253400324    0.6515083685 | 
    1040 |    -0.2249491325    0.6229854963 | 
                 - Gap at zero temperature -
    1041 |    -0.2224615882    0.4296535489 | 
    1042 |    -0.2205387868    0.2910195498 | 
    1043 |    -0.2182002567    0.1639828961 | 
    1044 |    -0.2158426351    0.0852264306 | 
    1045 |    -0.2139176886    0.0482817673 | 
                          ------
    2104 |     0.5961230192    0.0000000000 | 

                       |  Abs_value |  Threshold | Converged
     Delta_Free_energy |   1.34E-01 |   1.00E-06 |        No
     Delta_Energy      |   1.31E-01 |   1.00E-04 |        No
     Delta_Entropy     |   2.34E-03 |   1.00E-04 |        No
     Commutator        |   4.72E-04 |   1.00E-05 |        No
     Delta_Fermi_level |   9.01E-03 |   1.00E-03 |        No

  Line search of the free energy minimum:
  Step_type        Step             Free_energy   Predicted_free_energy
.   Initial    0.000000    -2906.01424950121600
.    Trial1    0.106596    -2906.09108309104477
.    Trial2    0.447846    -2905.54523958512391
. Quadratic    0.122858    -2906.08960529189198    -2906.09245318184094
.     Cubic    0.107318    -2906.09108666525890    -2906.09108631994786

--------------------------------------------------------------------------------
  Iter                              Commutator    Free_energy(A=E-TS)     DeltaA
#    3                          0.000382620546   -2906.09108666525890  -7.68E-02

[...]
 C   436 -- C   454       -0.10      5.38367
 C    26 -- C   462       -0.10      5.38372
 C    33 -- C    43       -0.10      5.38380
 C   244 -- C   278       -0.10      5.38389
 C   328 -- C   384       -0.09      5.38389
 C   416 -- C   476       -0.10      5.38392
 C   245 -- C   267       -0.10      5.38396
 C   350 -- C   380       -0.10      5.38401
 C   423 -- C   459       -0.10      5.38401
 C   444 -- C   462       -0.10      5.38406
 C   301 -- C   447       -0.10      5.38408
 C    28 -- C   126       -0.10      5.38418
 C    48 -- C   126       -0.10      5.38431
 C   477 -- C   485       -0.10      5.38434
 C     1 -- C     7       -0.10      5.38438
 C   306 -- C   354       -0.10      5.38439
 C   216 -- C   234       -0.09      5.38443
 C   366 -- C   384       -0.10      5.38443
 C    20 -- C    46       -0.10      5.38446
 C     1 -- C   449       -0.10      5.38448
 C    43 -- C    65       -0.10      5.38459
 C    86 -- C   482       -0.10      5.38465
 C   268 -- C   286       -0.10      5.38484
 C   107 -- C   109       -0.10      5.38489
 C     3 -- C   109       -0.10      5.38498
 C   268 -- C   302       -0.10      5.38502
 C   421 -- C   461       -0.09      5.38506
 C    11 -- C    77       -0.10      5.38518
 C    88 -- C   560       -0.09      5.38525
 C    70 -- C   120       -0.10      5.38538
 C     9 -- C   245       -0.10      5.38544
 C   447 -- C   457       -0.10      5.38558
 C    96 -- C   126       -0.10      5.38562
 C   351 -- C   361       -0.10      5.38573
 C   297 -- C   303       -0.10      5.38580
 C   274 -- C   304       -0.10      5.38584
 C   111 -- C   121       -0.10      5.38585
 C   201 -- C   239       -0.08      5.38586
 C   209 -- C   271       -0.10      5.38596
 C    36 -- C    98       -0.10      5.38603
 C    13 -- C    43       -0.10      5.38610
 C    76 -- C   564       -0.10      5.38619
 C   194 -- C   276       -0.10      5.38632
 C   409 -- C   455       -0.10      5.38642
 C   282 -- C   358       -0.10      5.38643
 C   250 -- C   280       -0.10      5.38653
 C     5 -- C   375       -0.10      5.38662
 C    84 -- C   114       -0.10      5.38668
 C   431 -- C   441       -0.10      5.38698
 C   266 -- C   296       -0.10      5.38705
 C   436 -- C   482       -0.10      5.38711
 C   330 -- C   382       -0.10      5.38711
 C   226 -- C   382       -0.10      5.38712
 C   379 -- C   389       -0.08      5.38730
 C    77 -- C    91       -0.10      5.38755
 C   202 -- C   208       -0.10      5.38771
 C    32 -- C   102       -0.10      5.38783
 C    85 -- C    95       -0.10      5.38789
 C   197 -- C   295       -0.09      5.38789
 C   385 -- C   395       -0.10      5.38808
 C   358 -- C   388       -0.10      5.38810
 C   224 -- C   306       -0.10      5.38812
 C    38 -- C   104       -0.09      5.38817
 C   266 -- C   452       -0.09      5.38826
 H   426 -- Li  600       -0.03      5.38827
 C    57 -- C   379       -0.10      5.38827
 C    15 -- C    89       -0.10      5.38835
 C   182 -- C   220       -0.09      5.38840
 C    34 -- C   100       -0.10      5.38848
 C   272 -- C   462       -0.10      5.38852
 C    87 -- C    93       -0.10      5.38877
 C   333 -- C   365       -0.09      5.38879
 C    99 -- C   121       -0.10      5.38885
 C   216 -- C   282       -0.10      5.38888
 C    92 -- C   564       -0.10      5.38915
 C    88 -- C   118       -0.10      5.38915
 C   243 -- C   347       -0.10      5.38921
 C   243 -- C   269       -0.10      5.38924
 C   265 -- C   443       -0.09      5.38930
 C   266 -- C   422       -0.09      5.38935
 C   272 -- C   294       -0.10      5.38952
 C    51 -- C   521       -0.10      5.38963
 C   227 -- C   237       -0.09      5.38965
 C   192 -- C   290       -0.09      5.38966
 C   222 -- C   300       -0.10      5.38975
 C   274 -- C   460       -0.09      5.38994
 C    55 -- C   525       -0.10      5.38997
 C   114 -- C   446       -0.10      5.39006
 C   277 -- C   373       -0.10      5.39008
 C   440 -- C   488       -0.09      5.39009
 C   368 -- C   394       -0.10      5.39031
 C   214 -- C   378       -0.09      5.39052
 C   315 -- C   349       -0.10      5.39087
 C   287 -- C   301       -0.10      5.39096
 C   103 -- C   525       -0.10      5.39098
 C    73 -- C    79       -0.10      5.39102
 C   446 -- C   460       -0.10      5.39104
 C   364 -- C   390       -0.09      5.39120
 C    84 -- C   567       -0.10      5.39138
 C   190 -- C   300       -0.09      5.39141
 C   187 -- C   193       -0.08      5.39150
 C   214 -- C   276       -0.10      5.39174
 H   584 -- Li  602       -0.03      5.39200
 C   224 -- C   242       -0.09      5.39205
 C    79 -- C    89       -0.09      5.39218
 C    74 -- C   488       -0.09      5.39225
 C   221 -- C   243       -0.09      5.39233
 C    40 -- C   102       -0.09      5.39263
 C   293 -- C   421       -0.10      5.39291
 C     5 -- C    59       -0.10      5.39292
 C    40 -- C    54       -0.10      5.39294
 C   461 -- C   479       -0.09      5.39321
 C   178 -- C   264       -0.09      5.39357
 C    51 -- C    57       -0.10      5.39361
 C   213 -- C   219       -0.10      5.39394
 C   275 -- C   375       -0.10      5.39461
 C    35 -- C    41       -0.10      5.39463
 C   210 -- C   296       -0.09      5.39470
 C   256 -- C   290       -0.09      5.39470
 C   375 -- C   377       -0.10      5.39475
 C   222 -- C   374       -0.09      5.39493
 C   257 -- C   267       -0.10      5.39514
 C   194 -- C   288       -0.09      5.39584
 C   233 -- C   239       -0.09      5.39598
 C   408 -- C   416       -0.09      5.39618
 C    81 -- C    87       -0.09      5.39656
 C    82 -- C   492       -0.10      5.39671
 C   260 -- C   294       -0.09      5.39693
 C   208 -- C   298       -0.09      5.39693
 H   591 -- Li  594       -0.03      5.39736
 C   262 -- C   460       -0.09      5.39739
 C   275 -- C   301       -0.09      5.39748
 C    53 -- C   395       -0.09      5.39749
 C    66 -- C   100       -0.09      5.39756
 C    36 -- C    50       -0.09      5.39804
 C   345 -- C   351       -0.09      5.39835
 C   277 -- C   299       -0.09      5.39849
 C   202 -- C   216       -0.09      5.39853
 C   229 -- C   373       -0.09      5.39932
 C   264 -- C   424       -0.10      5.39959
 C   316 -- C   374       -0.09      5.39967
 C    69 -- C    95       -0.09      5.39992
 C   373 -- C   379       -0.09      5.40045
 C   185 -- C   299       -0.09      5.40111
 C   254 -- C   284       -0.09      5.40132
 C   211 -- C   221       -0.09      5.40140
 C   481 -- C   489       -0.09      5.40266
 C   237 -- C   275       -0.09      5.40302
 C   289 -- C   299       -0.09      5.40363
 C   327 -- C   333       -0.09      5.40411
 C    94 -- C   128       -0.09      5.40687
 C   143 -- C   219       -0.07      5.40719
 C   205 -- C   263       -0.09      5.40750
 C   223 -- Li  604       -0.06      5.40764
 C   349 -- C   363       -0.09      5.40802
 C   212 -- C   230       -0.08      5.40848
 C   253 -- C   413       -0.09      5.40863
 C    97 -- C   123       -0.09      5.40875
 C   191 -- C   221       -0.09      5.40902
 C   427 -- C   445       -0.08      5.41043
 C   201 -- Li  604       -0.09      5.41045
 C   181 -- C   287       -0.08      5.41045
 C   188 -- C   286       -0.08      5.41071
 C    96 -- C   567       -0.09      5.41074
 C   213 -- C   313       -0.09      5.41092
 C   330 -- C   394       -0.09      5.41105
 C   197 -- C   199       -0.10      5.41129
 C   420 -- C   444       -0.08      5.41142
 C   204 -- C   294       -0.08      5.41146
 C    99 -- C   521       -0.09      5.41204
 C   218 -- C   386       -0.09      5.41238
 C   211 -- C   315       -0.09      5.41241
 C   293 -- C   295       -0.09      5.41241
 C    75 -- C   463       -0.09      5.41267
 C   470 -- C   547       -0.09      5.41331
 C    49 -- C   391       -0.09      5.41384
 C    56 -- C   342       -0.09      5.41389
 C   285 -- C   287       -0.09      5.41453
 C   466 -- C   538       -0.09      5.41556
 C   186 -- C   192       -0.09      5.41630
 C   339 -- C   497       -0.09      5.41645
 C   444 -- C   492       -0.09      5.41719
 C    70 -- C   104       -0.09      5.41739
 C   262 -- C   292       -0.09      5.41804
 C    65 -- C    91       -0.09      5.41823
 C   252 -- C   406       -0.09      5.41877
 C   343 -- C   506       -0.09      5.41937
 C    52 -- C   338       -0.09      5.41976
 C   189 -- C   255       -0.09      5.42080
 C   313 -- C   319       -0.09      5.42128
 C   205 -- C   207       -0.09      5.42132
 C    83 -- C   467       -0.09      5.42149
 C    68 -- C   556       -0.09      5.42173
 C    71 -- C   516       -0.09      5.42295
 C   198 -- C   204       -0.09      5.42392
 C   193 -- C   219       -0.09      5.42416
 C   186 -- C   212       -0.08      5.42433
 C   182 -- C   188       -0.09      5.42473
 C   230 -- C   318       -0.09      5.42474
 C   220 -- C   238       -0.08      5.42608
 C   242 -- C   328       -0.09      5.42629
 C   261 -- C   427       -0.09      5.42998
 C   231 -- C   323       -0.09      5.43020
 C   430 -- C   480       -0.08      5.43501
 C   190 -- C   284       -0.08      5.43584
 C   423 -- C   489       -0.08      5.43592
 C   238 -- C   314       -0.08      5.44045
 C   229 -- C   235       -0.08      5.44573
 C   422 -- C   430       -0.08      5.44704
 C   189 -- C   191       -0.08      5.44870
 C   206 -- C   292       -0.08      5.44938
 C   319 -- C   361       -0.08      5.45066
 C   183 -- C   237       -0.07      5.45070
 C   227 -- C   309       -0.08      5.45276
 C   377 -- C   391       -0.08      5.45481
 C   185 -- C   235       -0.07      5.46879
 H   588 -- Li  596       -0.03      5.47244
 C    72 -- C   560       -0.07      5.48687
 C    67 -- C   511       -0.07      5.48906
 C   234 -- C   332       -0.08      5.49114
 C   260 -- C   420       -0.08      5.49187
 C   181 -- C   183       -0.07      5.50458
 H   141 -- Li  596       -0.02      5.52616
 C   134 -- Li  598       -0.07      5.62967
 H   142 -- Li  596       -0.02      5.63249
 C   188 -- C   203       -0.03      5.64423
 C   284 -- C   291       -0.04      5.66005
==================================================


=================== Orbital energy and occupancy information ===================

      Total number of orbitals:    2104
        Occupancy sum (kernel):    1039.999999999
   Occupancy sum (eigenvalues):    1039.999999999
                 HOMO-LUMO gap:       0.003003576 Eh
                 Mid-gap level:      -0.083561133 Eh

                        Orbital | Energy (Eh) | Occupancy
                            1    -1.895418940   1.0000000
                        .......   ...........   .........
                         1031    -0.123325678   0.9999951
                         1032    -0.119397140   0.9999857
                         1033    -0.119060508   0.9999839
                         1034    -0.117124780   0.9999720
                         1035    -0.103917740   0.9983484
                         1036    -0.093028584   0.9520250
                         1037    -0.090715504   0.9050326
                         1038    -0.087840238   0.7925305
                         1039    -0.086026911   0.6809485
                         1040    -0.085062921   0.6099881
                        ....... -- gap at 0K -- .........
                         1041    -0.082059345   0.3771587
                         1042    -0.081258007   0.3163340
                         1043    -0.078271782   0.1549444
                         1044    -0.076479405   0.0940329
                         1045    -0.074805240   0.0576495
                         1046    -0.073128835   0.0343223
                         1047    -0.068296928   0.0077502
                         1048    -0.067949733   0.0068811
                         1049    -0.066601252   0.0045486
                         1050    -0.064830711   0.0025856
                        .......   ...........   .........
                         2104     0.791098890   0.0000000

================================================================================

===================== Writing canonical molecular orbitals =====================
| Orbital  Energy (eV)  Norm     |
| HOMO     -2.31467987  1.000000 | Writing "12/592nano_HOMO.cube" ... done
Writing "12/592nano_HOMO.dx" ... done
| LUMO     -2.23294840  1.000000 | Writing "12/592nano_LUMO.cube" ... done
Writing "12/592nano_LUMO.dx" ... done
================================================================================
 
===================== Density of States (DOS) calculation ======================
Writing "12/592nano_DOS.txt" ...  done
================================================================================
 
Writing bands to file "12/592nano.val_bands" ... done
 
================ Projected Density of States (pDOS) calculation ================
 
Constructing AM resolved functions  ...... done
Writing NGWF plot files in formats: CUBE DX ...  done
 
Performing overlap integrals ...  done
 
Computing pDOS weights ...  done
 
All bands spilling parameter =   3.86 %
Occupancy-weighted spilling parameter =   0.95 %
 
 => Outputting data for OptaDOS <=
 
Writing pDOS weights to file "12/592nano.val_pdos_bin" ... done
 
Writing band gradients to file "12/592nano.val_dome_bin" ... done
 
Writing Castep output cell file to "12/592nano-out.cell" ... done
 
 => Computing Gaussian smeared pDOS <= 
Writing "12/592nano_PDOS.txt" ...  done
 
 => Computing Occupancy-weighted Gaussian smeared pDOS <= 
Writing "12/592nano_occ_PDOS.txt" ...  done
  => Band centres: 
 S band centre of group 1:  -15.338233 eV
 P band centre of group 1:   -7.762320 eV
  Band centres done. <=
  => Integrated number of electrons in each AM band: 
 S num electrons of group 1:  554.435659
 P num electrons of group 1: 1505.845322
  Integrated number of electrons done. <=
================================================================================

------------------------------ TIMING INFORMATION ------------------------------
AVERAGE TIME:    9512.143s on    140 node(s)                                    
TOTAL TIME:      9512.146s on    140 node(s)                                    
================= AVERAGE TIMINGS FROM ALL NODES (CUMULATIVE) ==================
|| TAG                                    #calls    cpu time   %total  Gflops ||
|| work_imbalance                       :     1        0.00s   0.000%  ------ ||
|| sparse_set_to_garbage                :   171        0.01s   0.000%  ------ ||
|| paw_sphere_density_on_grid           :     1        0.01s   0.000%  ------ ||
|| paw_tcore_density                    :     1        0.01s   0.000%  ------ ||
|| basis_extract_function_from_box      :   450        0.02s   0.000%  ------ ||
|| paw_dij_hartree                      :   937        0.03s   0.000%  ------ ||
|| ngwfs_initialise_from_radial         :     2        0.04s   0.000%  ------ ||
|| ewald_calculate_energy               :     1        0.15s   0.002%  ------ ||
|| density_init_guess_real              :     1        0.16s   0.002%  ------ ||
|| paw_tcore_hartree_on_grid            :     1        0.36s   0.004%  ------ ||
|| paw_dataset_init                     :     3        0.39s   0.004%  ------ ||
|| pseudo_make_structure_factor         :     1        0.46s   0.005%  ------ ||
|| sparse_init                          :     1        1.05s   0.011%  ------ ||
|| dense_normal_eigensolve              :     1        1.09s   0.011%  ------ ||
|| restart_kernel_write                 :    16        1.23s   0.013%  ------ ||
|| paw_species_calc_proj_prec_mat       :     1        1.88s   0.020%  ------ ||
|| sparse_embed_hotelling_invert_embed  :    29        6.79s   0.071%  ------ ||
|| ngwf_gradient_coeffs                 :    15        7.31s   0.077%  ------ ||
|| sw_init                              :     1        7.51s   0.079%  ------ ||
|| fourier_apply_box_pair               :   674        7.86s   0.083%  1.983k ||
|| augmentation_screen_dij              :   703       14.28s   0.150%  ------ ||
|| basis_copy_function_to_box           : 14667       15.66s   0.165%  ------ ||
|| paw_dij_xc                           :   937       20.58s   0.216%  ------ ||
|| projectors_init_fftbox_recip         :    91       28.71s   0.302%  ------ ||
|| hartree_on_grid                      :   698       33.84s   0.356%  ------ ||
|| eigenstates_pdos                     :     1       42.59s   0.448%  ------ ||
|| projectors_func_ovlp_box             :    30       46.59s   0.490%  ------ ||
|| integrals_kinetic                    :    29       47.07s   0.495%  ------ ||
|| aug_nonlocal_mat                     :   922       51.20s   0.538%  ------ ||
|| function_ops_brappd_ketppd           :    60       51.30s   0.539%  ------ ||
|| hamiltonian_energy_components        :     3       55.25s   0.581%  ------ ||
|| augmentation_density_on_grid         :   698       60.05s   0.631%  ------ ||
|| sparse_trace                         :  8736       67.02s   0.705%  ------ ||
|| fourier_apply_cell_forward           :  3486       74.59s   0.784% 162.664 ||
|| fourier_apply_cell_backward          :  3487       77.26s   0.812% 157.091 ||
|| eigenstates_calculate                :     1       81.29s   0.855%  ------ ||
|| basis_dot_function_with_box          : 3.245M      89.08s   0.937%  ------ ||
|| restart_ngwfs_tightbox_output        :    14      127.57s   1.341%  ------ ||
|| xc_energy_potential                  :   697      135.08s   1.420%  ------ ||
|| sparse_product                       :  7771      219.39s   2.306%  ------ ||
|| dense_eigensolve                     :   665      240.46s   2.528%  ------ ||
|| basis_add_function_to_box            : 9.298M     247.46s   2.602%  ------ ||
|| cell_grid_extract_box_real           :  7976      345.84s   3.636%  ------ ||
|| projectors_gradient_batch            :    30      347.36s   3.652%  ------ ||
|| integrals_locpot_mat_els_batch       :   466      407.96s   4.289%  ------ ||
|| cell_grid_deposit_box_real           : 25875      440.90s   4.635%  ------ ||
|| projectors_grad_precond_batch        :    30      507.69s   5.337%  ------ ||
|| edft_diag_ngwf_ham                   :   664      660.28s   6.941%  ------ ||
|| properties_calculate                 :     1      718.84s   7.557%  ------ ||
|| density_fftbox_deposit_to_cell       : 11866      779.36s   8.193%  ------ ||
|| density_batch_row_sums               :  1396      950.52s   9.993%  ------ ||
|| ngwf_gradient_build_batch            :    30      950.58s   9.993%  ------ ||
|| potential_apply_to_ngwf_batch        :   466     1030.33s  10.832%  ------ ||
|| ngwf_gradient_batch                  :    30     1034.10s  10.871%  ------ ||
|| fourier_apply_box                    : 46409     1087.31s  11.431%  3.188k ||
|| edft_apply_smearing_operator         :   664     1179.70s  12.402%  ------ ||
|| density_fftbox_interpolate_multiply  : 11866     1215.66s  12.780%  ------ ||
|| ngwf_gradient_lnv                    :    15     1369.34s  14.396%  ------ ||
|| integrals_locpot_dbl_grid            :   233     1445.22s  15.193%  ------ ||
|| density_batch_interp_deposit         :  1396     2659.11s  27.955%  ------ ||
|| density_on_dbl_grid                  :   698     3754.95s  39.475%  ------ ||
|| hamiltonian_lhxc_calculate           :   693     4068.68s  42.774%  ------ ||
|| edft_calculate                       :    15     6780.25s  71.280%  ------ ||
|| ngwf_cg_optimise                     :     1     8776.22s  92.263%  ------ ||
|| total_time                           :     1     9512.14s 100.000%  ------ ||
================================================================================
Overhead of generating timer report: 
- 0 ms averaging over threads,
- 20 ms ensuring consistency across MPI ranks,
- 0 ms printing in order.

Job completed: 06-06-2020 08:40 (+0100)

