 +---------------------------------------------------------------+
 |                                                               |
 |        ####### #     # ####### ####### ####### ######         |
 |        #     # ##    # #          #    #       #     #        |
 |        #     # # #   # #          #    #       #     #        |
 |        #     # #  #  # #####      #    #####   ######         |
 |        #     # #   # # #          #    #       #              |
 |        #     # #    ## #          #    #       #              |
 |        ####### #     # #######    #    ####### #              |
 |                                                               |
 |        Linear-Scaling Ab Initio Total Energy Program          |
 |                                                               |
 |          Release for academic collaborators of ODG            |
 |                                             Version 6.1.3.6   |
 |                                                               |
 +---------------------------------------------------------------+
 |                                                               |
 |  Authors:                                                     |
 |  Jacek Dziedzic, Peter D. Haynes, Nicholas D. M. Hine,        |
 |  Arash A. Mostofi, Mike C. Payne and Chris-Kriton Skylaris    |
 |                                                               |
 |  Contributors:                                                |
 |  J. Aarons, L. Andrinopoulos, P. W. Avraam, R. A. Bell,       |
 |  A. Bhandari, G. A. Bramley, R. J. Charlton, S. J. Clark,     |
 |  R. J. Clements, G. C. Constantinescu, F. Corsetti,           |
 |  N. Corsini, O. Dieguez, S. M. M. Dubois, K. K. B. Duff,      |
 |  J. M. Escartin, A. Greco, H. Helal, Q. O. Hill, L. P. Lee,   |
 |  J.-H. Li, E. B. Linscott, G. Moynihan, D. D. O`Regan,        |
 |  O. K. Okan, M. J. S. Phipps, C. J. Pickard,                  |
 |  J. C. A. Prentice, M. I. J. Probert, L. E. Ratcliff,         |
 |  M. Robinson, A. Ruiz Serrano, J. S. Spencer, E. W. Tait,     |
 |  G. Teobaldi, D. Turban, V. Vitale, K. A. Wilkinson,          |
 |  C. Weber, J. C. Womack, N. Yeung and T. J. Zuehlsdorff       |
 |                                                               |
 |                                   Copyright (c) 2004-2021     |
 |                                                               |
 |  Please cite:                                                 |
 |  "The ONETEP linear-scaling density functional theory program"|
 |   J. Chem. Phys. 152(17) 174111 (2020)                        |
 |                                                               |
 |          in all publications arising from your use of ONETEP. |
 |                                                               |
 +---------------------------------------------------------------+
 |                                                               |
 |   ONETEP is based on developments described in the following  |
 |   publications:                                               |
 |                                                               |
 |  "Nonorthogonal generalized Wannier function pseudopotential  |
 |   plane-wave method".                                         |
 |   C.-K. Skylaris, A. A. Mostofi, P. D. Haynes, O. Dieguez,    |
 |   M. C. Payne.                                                |
 |   Phys. Rev. B 66 035119 (2002).                              |
 |                                                               |
 |  "Preconditioned iterative minimization for linear-scaling    |
 |   electronic structure calculations".                         |
 |   A. A. Mostofi, P. D. Haynes, C.-K. Skylaris, M. C. Payne.   |
 |   J. Chem. Phys. 119(17), pp.8842-8848 (2003).                |
 |                                                               |
 |  "Total-energy calculations on a real space grid with         |
 |   localized functions and a plane-wave basis".                |
 |   A. A. Mostofi, C.-K. Skylaris, P. D. Haynes, M. C. Payne.   |
 |   Comput. Phys. Commun. 147, pp.788-802 (2002).               |
 |                                                               |
 |  "Accurate kinetic energy evaluation in electronic structure  |
 |   calculations with localized functions on real space grids"  |
 |   C.-K. Skylaris, A. A. Mostofi, P. D. Haynes, C. J. Pickard, |
 |   M. C. Payne.                                                |
 |   Comput. Phys. Commun. 140, pp.315-322 (2001).               |
 |                                                               |
 |  "Accurate ionic forces and geometry optimization in linear-  |
 |   scaling density-functional theory with local orbitals"      |
 |   N. D. M. Hine, M. Robinson, P. D. Haynes, C.-K. Skylaris,   |
 |   M. C. Payne, and A. A. Mostofi.                             |
 |   Phys. Rev. B 83 195102 (2011).                              |
 |                                                               |
 +---------------------------------------------------------------+

Job started: 17-12-2021 02:46 (-0000)
 
Reading parameters from file "52/592nano.dat" ...... done

If your calculation crashes here, before "Checking processes and threads..."
is displayed, then your stack size is insufficient.
If so, use "ulimit -s unlimited" at runtime.
You can disable this check with "check_stack_size F".

Checking processes and threads...
   Determining the default number of threads...
      No default threads set at compilation time: defaulting to 1.
      OpenMP library call suggests 4 threads.
      Hybrid MPI-OpenMP compilation detected.
      Number of MPI processes > 1.
      OMP_NUM_THREADS environment variable present and
      its value matches the one obtained from the OpenMP library call.
      Using this value as default.
      Default threads: 4
      Default applies to threads_max and threads_num_fftboxes.
      Settings in the input file override this default.
   ... done

   Running with 160 MPI processes.
   There are 16 MPI processes running on the same node as the root process.
   Each MPI process is using: 
               1 threads for simulation cell FFTs.
               1 threads for parallel FFT box operations.
               4 threads for loops over batched FFT box operations.
               4 threads in other parallel regions.
... done

Basic input checks...
Resetting ngwf_cg_rotate to TRUE for EDFT calculations
... done

Reading geometry and species blocks from file "52/592nano.dat" ...    
  Number of PPD points along a3 set to 1.  This is 
  the default value, it may have been provided also in the input file.
... done
 Writing xyz coordinates to file "52/592nano.xyz" ... done


--------------------------------------------------------------------------------
---------------------------------- INPUT FILE ----------------------------------
--------------------------------------------------------------------------------

task : singlepoint                                                              
do_properties : true                                                            
dx_format T                                                                     
edft T                                                                          
edft_spin_fix 3                                                                 
output_detail VERBOSE                                                           
timings_level 3                                                                 
write_xyz T                                                                     
edft_update_scheme: pulay_mix                                                   
edft_ham_diis_size: 10                                                          
edft_trial_step: 0.1                                                            
xc_functional OPTPBE                                                            
cutoff_energy 830 eV                                                            
paw T                                                                           
geom_disp_tol 0.06 bohr                                                         
geom_energy_tol 6E-6 hartree                                                    
geom_force_tol 0.012 "ha/bohr"                                                  
geom_max_iter 25                                                                
EDFT_MAXIT 30                                                                   
pdos_max_l = 2                                                                  
dos_smear  0.1 eV                                                               
popn_calculate T                                                                
PDOS_PSEUDOATOMIC T                                                             
PDOS_REDUCE_SWS F                                                               
PDOS_CONSTRUCT_BASIS F                                                          
PDOS_LOWDIN T                                                                   
PDOS_ORTH_ATOM_BLOCKS F                                                         
PDOS_LCAO_OPTIMIZE F                                                            
pdos_optados_output T                                                           
homo_plot 0                                                                     
lumo_plot 0                                                                     
homo_dens_plot -1                                                               
lumo_dens_plot -1                                                               
%BLOCK SPECIES                                                                  
C C 6 4 9.0                                                                     
H H 1 1 9.0                                                                     
Li Li 3 5 9.0                                                                   
%ENDBLOCK SPECIES                                                               
%BLOCK SPECIES_POT                                                              
C "~/pp/paw/c_pbe_abinit.paw"                                                   
H "~/pp/paw/h_pbe_abinit.paw"                                                   
Li "~/pp/paw/li_pbe_abinit.paw"                                                 
%ENDBLOCK SPECIES_POT                                                           
%BLOCK SPECIES_ATOMIC_SET                                                       
C "SOLVE conf=2s2 2p2"                                                          
H "SOLVE conf=1s1"                                                              
Li "SOLVE conf=1s2 2s1 2p0"                                                     
%ENDBLOCK SPECIES_ATOMIC_SET                                                    
%BLOCK SPECIES_LDOS_GROUPS                                                      
C                                                                               
H                                                                               
Li                                                                              
%ENDBLOCK SPECIES_LDOS_GROUPS                                                   
%BLOCK LATTICE_CART                                                             
94.486315650000      0.000000000000       0.000000000000                        
0.000000000000       94.486315650000      0.000000000000                        
0.000000000000       0.000000000000       94.486315650000                       
%ENDBLOCK LATTICE_CART                                                          
%BLOCK POSITIONS_ABS                                                            
C 42.854582 41.444172 31.454485                                                 
C 38.779704 43.741961 31.594095                                                 
C 41.526331 39.128004 30.965113                                                 
C 45.555416 41.466682 31.492792                                                 
C 37.454214 41.416019 31.154054                                                 
C 37.412825 46.069037 31.744578                                                 
C 54.961360 48.601263 31.198142                                                 
C 54.898446 53.287583 31.199674                                                 
C 53.633340 46.250958 31.297131                                                 
C 38.622224 57.811636 31.822284                                                 
C 42.643262 60.212607 31.709436                                                 
C 37.306970 55.452065 31.888782                                                 
C 53.529392 55.613052 31.348578                                                 
C 45.349930 60.233590 31.689013                                                 
C 46.925262 39.156681 31.147028                                                 
C 41.483521 43.766479 31.709276                                                 
C 34.714876 46.046682 31.527295                                                 
C 50.948502 41.541413 31.199229                                                 
C 53.584597 50.932589 31.401534                                                 
C 34.671749 50.723836 31.662748                                                 
C 41.324495 57.851663 31.933258                                                 
C 38.818648 39.125795 30.766594                                                 
C 54.997795 43.926197 31.011548                                                 
C 49.591117 43.860313 31.537016                                                 
C 37.358158 50.758066 31.947524                                                 
C 49.446464 57.922605 31.674838                                                 
C 34.611407 55.407203 31.608431                                                 
C 57.639751 48.613738 30.735241                                                 
C 50.762414 60.268770 31.359908                                                 
C 57.559644 53.298499 30.648308                                                 
C 37.243984 60.119625 31.409043                                                 
C 54.828994 57.959438 31.013924                                                 
C 50.831260 55.592157 31.662934                                                 
C 46.739289 57.904331 31.845347                                                 
C 41.261235 62.511975 31.316774                                                 
C 46.670791 62.563670 31.309968                                                 
C 46.888809 43.821640 31.695989                                                 
C 50.928935 46.218453 31.556511                                                 
C 38.735042 48.422966 31.960422                                                 
C 38.681666 53.125371 32.038404                                                 
C 49.608817 39.204753 31.013015                                                 
C 33.364988 48.364756 31.460790                                                 
C 42.908534 36.808384 30.602740                                                 
C 53.639090 41.596499 30.905351                                                 
C 34.746621 41.397407 31.001205                                                 
C 33.317011 53.058771 31.436064                                                 
C 45.604012 36.820242 30.738456                                                 
C 33.387688 43.695591 31.241810                                                 
C 58.915024 50.967737 30.378625                                                 
C 53.443872 60.269887 31.022034                                                 
C 49.361372 62.573297 31.159589                                                 
C 38.555141 62.460651 31.134632                                                 
C 50.886266 50.904640 31.691117                                                 
C 42.709339 55.522487 32.078810                                                 
C 42.813013 46.120018 31.932010                                                 
C 57.685831 43.938788 30.637960                                                 
C 59.003315 46.279574 30.461763                                                 
C 33.226003 57.720972 31.358587                                                 
C 34.525506 60.059534 31.191327                                                 
C 58.851287 55.661200 30.255264                                                 
C 49.507120 53.236681 31.817216                                                 
C 45.420162 55.547926 32.017640                                                 
C 57.489005 57.981425 30.456414                                                 
C 49.555783 48.544846 31.751325                                                 
C 41.387260 53.156278 32.127098                                                 
C 42.583839 64.843924 30.898158                                                 
C 41.439946 48.454778 32.046097                                                 
C 45.520709 46.150447 31.896158                                                 
C 45.285054 64.866002 30.895564                                                 
C 37.479080 36.787979 30.151758                                                 
C 46.801229 53.212302 31.998116                                                 
C 42.765475 50.819405 32.116451                                                 
C 46.851257 48.512972 31.933857                                                 
C 41.565210 34.465312 30.061665                                                 
C 33.408778 39.083784 30.487028                                                 
C 50.965314 36.887171 30.521021                                                 
C 54.998330 39.295006 30.395882                                                 
C 30.672488 48.331537 31.012828                                                 
C 46.979805 34.494827 30.333884                                                 
C 30.638653 53.039014 30.902259                                                 
C 30.693713 43.666746 31.032362                                                 
C 45.474363 50.847962 32.057161                                                 
C 61.589367 50.982950 29.692938                                                 
C 38.881556 34.507128 29.909433                                                 
C 34.806402 36.825399 30.012317                                                 
C 37.150012 64.775385 30.577738                                                 
C 59.059203 41.607011 30.303465                                                 
C 54.743913 62.606329 30.482947                                                 
C 50.665726 64.901848 30.606040                                                 
C 61.678682 46.283253 29.851226                                                 
C 30.534811 57.687691 31.121255                                                 
C 61.522090 55.672408 29.595707                                                 
C 33.126745 62.364318 30.783174                                                 
C 41.190416 67.158907 30.381771                                                 
C 58.779531 60.332868 29.956927                                                 
C 46.617582 67.199121 30.372474                                                 
C 49.660371 34.580700 30.340237                                                 
C 29.400045 46.002881 30.889415                                                 
C 62.910111 48.659340 29.494175                                                 
C 53.664772 36.931027 30.455515                                                 
C 62.837074 53.334803 29.400371                                                 
C 57.661480 39.317227 30.289243                                                 
C 29.304999 50.670545 30.949130                                                 
C 42.986053 32.183557 29.843384                                                 
C 34.473372 64.677784 30.504894                                                 
C 38.493284 67.085711 30.279348                                                 
C 29.299077 55.334660 30.879335                                                 
C 30.721662 39.082963 30.630304                                                 
C 45.636540 32.209171 29.935985                                                 
C 29.402694 41.323344 30.897653                                                 
C 57.370357 62.618335 30.079277                                                 
C 53.373041 64.936925 30.589676                                                 
C 49.303818 67.164329 30.323289                                                 
H 37.868840 32.732642 29.511628                                                 
H 33.784275 35.070246 29.537745                                                 
C 63.037671 43.957266 29.777095                                                 
C 61.729613 41.638315 30.067326                                                 
C 62.762652 58.036636 29.267362                                                 
C 29.182208 60.012332 31.081978                                                 
C 30.435694 62.287016 30.915754                                                 
C 61.401673 60.306679 29.380823                                                 
C 42.566796 69.444962 30.041382                                                 
C 45.221401 69.454682 29.980259                                                 
H 64.864753 53.340482 28.928728                                                 
H 64.927328 48.673069 28.981790                                                 
H 50.717284 32.845595 29.828487                                                 
H 41.963986 30.398786 29.533727                                                 
H 29.704612 37.270207 30.464062                                                 
H 27.353236 45.977865 30.422238                                                 
H 37.442501 68.833638 29.855101                                                 
H 33.406940 66.435607 30.173332                                                 
H 58.685445 37.511042 30.051792                                                 
H 27.228719 55.310399 30.594440                                                 
H 46.709722 30.433932 29.766520                                                 
H 54.658182 35.259712 29.672858                                                 
H 27.319420 41.323628 30.946356                                                 
H 27.379565 50.653970 30.125494                                                 
H 58.306418 64.396343 29.504785                                                 
H 50.316213 68.903407 29.752331                                                 
H 65.113530 44.009401 29.570129                                                 
H 62.731650 39.810299 30.024314                                                 
H 54.292121 66.610459 29.727420                                                 
H 64.797938 58.036931 28.836349                                                 
H 29.383764 64.085960 30.849926                                                 
H 27.099902 59.951503 31.141464                                                 
H 41.508755 71.211462 29.733817                                                 
H 62.371307 62.113947 29.045887                                                 
H 46.252822 71.232228 29.652872                                                 
C 44.228844 39.042383 37.455245                                                 
C 36.051611 43.703834 37.434728                                                 
C 40.145646 41.388422 37.489645                                                 
C 41.525355 39.063385 37.416020                                                 
C 49.639266 39.053690 37.175527                                                 
C 37.442062 41.390474 37.341375                                                 
C 48.267334 41.408389 37.355594                                                 
C 53.711207 41.428466 37.154359                                                 
C 45.571672 41.394400 37.511314                                                 
C 52.329838 43.768927 37.164734                                                 
C 36.015846 48.375337 37.709308                                                 
C 37.382944 46.048800 37.658489                                                 
C 45.586789 36.690027 37.363936                                                 
C 35.965881 53.068560 37.899602                                                 
C 33.305740 48.358896 37.582601                                                 
C 53.651079 46.123071 37.021145                                                 
C 52.370748 39.073952 37.130759                                                 
C 33.261382 53.053512 37.839429                                                 
C 56.383494 46.138615 36.912272                                                 
C 33.346281 43.683163 37.263192                                                 
C 49.597038 43.757181 37.341290                                                 
C 37.305819 55.405995 37.935399                                                 
C 48.298894 36.695200 37.273138                                                 
C 41.479076 43.726783 37.659604                                                 
C 37.347417 50.726263 37.870932                                                 
C 35.943467 57.734274 37.858567                                                 
C 56.425282 41.421884 37.104179                                                 
C 56.334252 50.858133 36.937410                                                 
C 53.616936 50.847385 37.091844                                                 
C 53.580619 55.572680 37.169351                                                 
C 31.916945 50.699987 37.756185                                                 
C 45.415495 60.175205 37.663245                                                 
C 41.363875 57.780456 37.884036                                                 
C 57.741535 43.783714 36.940121                                                 
C 31.976308 46.003001 37.398225                                                 
C 52.200721 57.891549 37.183015                                                 
C 44.190032 43.732757 37.651587                                                 
C 48.105502 60.209164 37.422694                                                 
C 40.094738 46.057602 37.745215                                                 
C 39.994448 60.108691 37.783178                                                 
C 49.469365 57.876420 37.150244                                                 
C 52.265705 48.482344 37.060013                                                 
C 57.712685 48.507362 36.825336                                                 
C 40.023255 55.425787 37.955824                                                 
C 56.317899 55.586121 37.056611                                                 
C 52.235366 53.186880 37.253345                                                 
C 44.068350 57.810816 37.775837                                                 
C 40.184900 36.711104 37.232258                                                 
C 31.882997 55.399880 37.757502                                                 
C 44.046116 62.509069 37.641467                                                 
C 36.083883 39.038366 37.144548                                                 
C 33.231814 57.728939 37.691852                                                 
C 37.297936 60.067910 37.817620                                                 
C 57.675438 53.227827 36.937674                                                 
C 41.330627 62.458544 37.599875                                                 
C 48.227009 46.093030 37.500421                                                 
C 40.042451 50.742102 37.919823                                                 
C 48.123289 55.492785 37.265103                                                 
C 44.217190 34.294916 37.356143                                                 
C 53.751689 36.700497 37.294437                                                 
C 53.557328 60.271086 37.299877                                                 
C 49.554455 48.463661 37.410613                                                 
C 49.450147 62.576861 37.525063                                                 
C 41.392642 53.097933 37.963491                                                 
C 45.425764 55.477058 37.658768                                                 
C 49.508663 53.162553 37.389719                                                 
C 45.511438 46.087690 37.669840                                                 
C 41.420771 48.405442 37.836271                                                 
C 31.975278 41.331974 37.015982                                                 
C 37.471220 36.714522 37.106121                                                 
C 49.669675 34.262463 37.309831                                                 
C 41.518327 34.369560 37.192191                                                 
C 57.668715 57.943925 37.108882                                                 
C 57.853796 39.031547 37.171525                                                 
C 33.390974 39.035980 37.138078                                                 
C 45.386077 64.878432 37.559729                                                 
C 44.103210 53.118144 37.869123                                                 
C 48.178496 50.801355 37.606438                                                 
C 29.161396 50.671795 37.921528                                                 
C 44.134893 48.420561 37.772013                                                 
C 60.432677 48.520790 36.731516                                                 
C 52.165133 62.601267 37.442364                                                 
C 45.475247 50.777206 37.782131                                                 
C 60.494165 43.765240 36.974904                                                 
C 29.217986 45.945599 37.556193                                                 
C 56.279786 60.273424 37.286536                                                 
C 56.475117 36.697527 37.341782                                                 
C 29.119853 55.411832 37.687438                                                 
C 48.099748 64.899959 37.612391                                                 
C 60.385025 53.247236 36.831585                                                 
C 52.387773 34.347863 37.533217                                                 
C 35.921963 62.389273 37.694431                                                 
C 31.836635 60.055911 37.408967                                                 
C 39.962123 64.802306 37.414528                                                 
C 45.586942 31.974631 37.157403                                                 
C 27.801086 53.013557 37.973520                                                 
C 61.804983 46.157795 36.740686                                                 
C 27.892425 48.294567 37.992120                                                 
C 61.749323 50.896267 36.599428                                                 
C 48.290927 31.985469 37.146536                                                 
C 29.301673 41.345814 36.922710                                                 
C 33.205822 62.402376 37.605355                                                 
C 60.504826 39.048456 36.886962                                                 
C 37.264966 64.724815 37.403010                                                 
C 60.424160 57.978350 36.974639                                                 
H 36.444031 34.888274 37.263892                                                 
H 40.450152 32.569290 37.174970                                                 
C 61.812903 41.394424 36.913392                                                 
C 44.006714 67.253540 37.524934                                                 
H 32.348391 37.216255 37.228299                                                 
C 61.720347 55.615122 36.623085                                                 
C 27.949852 43.610715 37.301070                                                 
C 41.290938 67.161982 37.345442                                                 
H 57.523129 34.911122 37.026320                                                 
C 27.837202 57.735531 37.466194                                                 
C 29.173896 60.009255 37.318625                                                 
H 53.458002 32.546598 37.618559                                                 
C 53.525011 64.983237 37.686178                                                 
H 44.544408 30.170756 37.128044                                                 
H 25.716692 52.994177 37.988752                                                 
C 57.673534 62.669777 37.441883                                                 
C 49.457475 67.317291 37.718968                                                 
H 63.862627 46.208355 37.136183                                                 
H 28.286822 39.549130 36.655316                                                 
H 25.843102 48.246367 38.381107                                                 
H 63.848543 50.904007 36.800467                                                 
H 49.309001 30.168297 37.070167                                                 
H 61.554689 37.250594 36.659220                                                 
H 32.210276 64.175840 37.088396                                                 
H 36.189212 66.532790 37.278479                                                 
H 63.887382 41.350753 36.712924                                                 
H 63.814783 55.614918 36.488608                                                 
H 25.867527 43.580769 37.387702                                                 
H 25.755736 57.740741 37.396580                                                 
C 61.714946 60.336717 36.899223                                                 
H 40.234695 68.953930 37.595786                                                 
C 45.369654 69.579495 37.465560                                                 
H 28.154048 61.812425 37.099470                                                 
C 52.152802 67.276915 37.848646                                                 
C 56.228447 64.944229 37.811621                                                 
C 60.342654 62.661256 37.179594                                                 
C 48.058507 69.599273 37.618083                                                 
H 63.801005 60.347327 36.849174                                                 
H 44.307682 71.367148 37.520219                                                 
H 53.191854 69.055218 38.173084                                                 
H 57.240661 66.735903 38.144025                                                 
H 61.366203 64.469896 37.252908                                                 
H 49.088956 71.403699 37.719454                                                 
H 28.510155 38.020278 44.116036                                                 
H 40.312140 30.041027 44.474504                                                 
H 32.441120 35.330817 43.690278                                                 
H 36.333549 32.637704 43.943443                                                 
H 45.044504 29.782714 44.661442                                                 
H 26.422438 42.325185 44.186152                                                 
C 41.461193 31.777201 44.390235                                                 
C 29.690483 39.735888 44.124547                                                 
H 61.927448 37.897353 43.487016                                                 
C 33.602146 37.045544 43.970516                                                 
C 37.505708 34.368196 43.967632                                                 
C 44.091098 31.625314 44.486154                                                 
H 49.184321 31.775081 44.241370                                                 
H 64.583321 41.898789 43.379769                                                 
C 28.497693 42.176136 44.199764                                                 
H 65.566277 56.028026 43.764908                                                 
H 26.828793 47.090361 44.156435                                                 
H 27.810715 61.012520 44.788314                                                 
H 53.419879 33.821280 43.971085                                                 
H 57.650442 35.868073 44.057003                                                 
H 30.455823 64.985353 44.687881                                                 
H 27.235296 51.725060 44.799431                                                 
H 65.266921 51.298310 43.500688                                                 
H 43.236102 71.190223 44.457584                                                 
H 63.465362 60.292109 44.143061                                                 
H 27.538728 56.286997 45.015370                                                 
H 64.899037 46.632707 43.301134                                                 
C 32.349696 39.476803 44.092006                                                 
C 40.235950 34.142655 44.193033                                                 
H 48.027242 70.842427 44.534553                                                 
C 36.305608 36.798793 44.043144                                                 
H 38.959095 69.139751 44.292246                                                 
C 61.017692 39.762721 43.582107                                                 
C 62.509438 42.025885 43.486876                                                 
H 34.730779 67.123202 44.541919                                                 
C 48.279677 33.672258 44.211665                                                 
C 63.488281 56.158875 43.824755                                                 
C 28.896249 46.894329 44.415894                                                 
H 59.550736 62.932971 44.507447                                                 
C 29.889895 60.879285 44.734385                                                 
C 45.590455 33.823946 44.363738                                                 
H 51.899867 68.142308 44.338759                                                 
H 55.687423 65.500776 44.704639                                                 
C 29.987618 44.426074 44.187692                                                 
C 31.388795 63.122359 44.605096                                                 
C 52.502044 35.725161 43.984183                                                 
C 62.311226 58.558139 44.037891                                                 
C 56.748996 37.734301 43.753858                                                 
C 44.144539 69.319019 44.438433                                                 
C 29.328664 51.546448 44.773516                                                 
C 63.183267 51.445071 43.565440                                                 
C 29.617081 56.174455 44.782415                                                 
C 62.823281 46.758336 43.418884                                                 
C 46.842228 69.133765 44.529107                                                 
C 49.783330 35.877548 43.955637                                                 
C 58.319376 39.925588 43.602370                                                 
C 39.872085 67.268850 44.254857                                                 
C 54.059114 37.940861 43.627567                                                 
C 30.433871 49.116904 44.534574                                                 
C 61.386450 44.450478 43.495367                                                 
C 35.632755 65.237088 44.410093                                                 
C 41.734715 36.462966 44.108752                                                 
C 62.024596 53.918565 43.808320                                                 
C 33.929404 41.765359 44.083190                                                 
C 31.048035 58.453035 44.550335                                                 
C 45.408547 50.352671 43.602657                                                 
C 30.816565 53.770613 44.877087                                                 
C 37.832770 39.090346 44.052056                                                 
C 61.700181 49.187791 43.530389                                                 
C 46.930929 52.594705 43.721066                                                 
C 58.407510 61.182916 44.367249                                                 
C 42.706518 50.558082 43.638435                                                 
C 46.579751 47.901247 43.595918                                                 
C 44.419055 36.282434 44.108989                                                 
C 34.061229 62.989251 44.415221                                                 
C 50.700442 66.432461 44.319144                                                 
C 42.595548 67.152769 44.320428                                                 
C 32.740972 44.221871 44.119758                                                 
C 54.520022 63.775314 44.555550                                                 
C 59.644784 58.764419 44.175210                                                 
C 45.743663 55.040029 43.834280                                                 
C 49.632933 52.394886 43.877654                                                 
C 41.186829 48.307995 43.658981                                                 
C 45.065816 45.654755 43.575036                                                 
C 38.332106 65.071565 44.255430                                                 
C 41.529971 52.999550 43.724408                                                 
C 49.277080 47.696964 43.733092                                                 
C 48.038392 66.702465 44.391090                                                 
C 40.544524 38.910852 43.960275                                                 
C 36.630504 41.554362 44.019769                                                 
C 42.361919 45.860919 43.619056                                                 
C 43.045242 55.252843 43.754463                                                 
C 50.816731 49.955370 43.837037                                                 
C 48.602096 38.343308 43.862310                                                 
C 55.726154 61.384024 44.457350                                                 
C 33.149210 48.912394 44.322798                                                 
C 52.841946 40.394612 43.596238                                                 
C 57.097980 42.384343 43.606033                                                 
C 51.860778 64.024793 44.167983                                                 
C 58.611940 44.658506 43.652759                                                 
C 45.906609 38.527951 43.873358                                                 
C 46.243273 43.212184 43.600064                                                 
C 38.492576 48.503860 43.797569                                                 
C 34.280442 46.461543 44.088416                                                 
C 33.495480 53.580681 44.459549                                                 
C 50.459170 45.241754 43.748877                                                 
C 38.835942 53.200059 43.874903                                                 
C 51.151660 54.629621 44.210944                                                 
C 40.844876 43.626884 43.725759                                                 
C 50.133204 40.577373 43.688624                                                 
C 47.256527 57.286446 44.126473                                                 
C 33.789937 58.262378 44.372441                                                 
C 59.287127 54.075158 43.917641                                                 
C 42.037303 41.163772 43.764237                                                 
C 38.154684 43.815686 43.851971                                                 
C 48.933201 43.012072 43.635437                                                 
C 44.719318 40.962675 43.698848                                                 
C 58.954467 49.382380 43.724363                                                 
C 37.331381 50.954193 43.937735                                                 
C 35.291684 60.517015 44.291038                                                 
C 36.976686 46.253888 43.882462                                                 
C 34.651690 51.153179 44.235425                                                 
C 54.378952 42.609974 43.634188                                                 
C 53.533537 49.724981 43.979942                                                 
C 49.955548 57.065007 44.384650                                                 
C 43.773731 64.625250 44.256432                                                 
C 41.867923 57.693019 43.880734                                                 
C 58.089600 56.500220 44.077294                                                 
C 34.973536 55.833698 44.262743                                                 
C 53.194385 45.032034 43.810346                                                 
C 57.446441 47.089354 43.783674                                                 
C 39.503803 62.580187 44.155918                                                 
C 37.660545 55.646735 44.016253                                                 
C 57.777474 51.818365 43.912413                                                 
C 54.704269 47.292150 43.908804                                                 
C 46.486907 64.427644 44.215904                                                 
C 53.870704 54.429651 44.149654                                                 
C 55.063954 51.999905 44.078221                                                 
C 39.159747 57.892884 43.987834                                                 
C 46.084905 59.735078 44.005545                                                 
C 37.980533 60.331006 44.130811                                                 
C 54.194164 59.127097 44.251253                                                 
C 43.398200 59.926593 43.951374                                                 
C 50.315125 61.753756 44.121650                                                 
C 42.239797 62.388723 44.123591                                                 
C 51.491798 59.330649 44.322964                                                 
C 55.398034 56.697544 44.137389                                                 
C 47.623952 61.983974 44.062392                                                 
H 43.876533 29.845174 50.277685                                                 
H 28.059384 39.495760 51.758256                                                 
H 48.607236 29.694402 50.373785                                                 
H 60.918251 36.487519 51.236706                                                 
H 63.353702 40.554043 51.407161                                                 
H 25.759174 43.638588 51.986792                                                 
H 28.494476 61.700751 52.159694                                                 
H 26.017960 57.642730 52.135107                                                 
H 36.104953 34.826144 51.731597                                                 
H 39.996220 32.317360 50.994423                                                 
H 32.103382 37.149250 51.737387                                                 
H 63.549279 49.844459 51.200302                                                 
H 36.660874 66.108127 52.051978                                                 
H 63.767174 59.079697 51.952777                                                 
H 44.792941 70.573178 52.550198                                                 
H 63.467057 45.232297 51.160279                                                 
H 32.613650 63.903434 52.118107                                                 
H 52.699133 31.960168 51.070159                                                 
H 56.815244 34.218124 51.095246                                                 
H 63.641599 54.440286 51.562658                                                 
H 61.489457 63.230677 52.271087                                                 
H 40.690258 68.364781 52.070095                                                 
H 49.531212 70.514430 52.438253                                                 
H 25.925090 52.983854 51.956955                                                 
H 25.897489 48.327453 52.290859                                                 
C 44.996770 31.602559 50.294526                                                 
C 47.606632 31.525817 50.367932                                                 
C 29.100791 41.288549 51.563377                                                 
C 59.938898 38.312734 51.019844                                                 
C 27.815508 43.594460 51.664220                                                 
C 61.291362 40.580937 51.129566                                                 
C 28.076792 57.623441 51.833967                                                 
C 29.456419 59.879474 51.859170                                                 
H 57.523346 65.673981 52.159679                                                 
H 53.563041 68.126194 52.083376                                                 
C 41.067577 34.097235 50.696091                                                 
C 37.052842 36.460780 50.822961                                                 
C 33.109677 38.891844 51.149906                                                 
C 61.709009 59.180019 51.648628                                                 
C 45.808283 68.808147 52.119198                                                 
C 60.445415 61.488830 51.817725                                                 
C 51.714964 33.784215 50.822888                                                 
C 48.451673 68.780719 52.038682                                                 
C 55.825402 36.030256 50.827688                                                 
C 61.404566 45.269901 50.854913                                                 
C 61.528121 49.909463 50.656149                                                 
C 33.549287 62.143887 51.479073                                                 
C 37.613198 64.373265 51.371015                                                 
C 27.903245 48.290280 51.726917                                                 
C 27.972258 52.948587 51.564694                                                 
C 61.628620 54.534708 50.997913                                                 
C 41.691982 66.589013 51.639217                                                 
C 43.706546 33.948798 50.352429                                                 
C 49.037174 33.803620 50.532786                                                 
C 31.750587 41.205715 51.155049                                                 
C 57.254417 38.303314 50.789358                                                 
C 29.141214 45.934346 51.441220                                                 
C 60.053938 42.954376 50.838179                                                 
C 29.306254 55.252599 51.450193                                                 
C 39.772795 36.411347 50.694504                                                 
C 32.109871 59.882644 51.423138                                                 
C 35.743175 38.826678 50.835162                                                 
C 53.146017 36.044407 50.700558                                                 
C 56.461616 63.940064 51.705737                                                 
C 52.493371 66.388787 51.672452                                                 
C 29.232301 50.616170 51.454021                                                 
C 45.365086 50.305590 49.358441                                                 
C 60.381604 56.908869 51.090673                                                 
C 60.153131 47.604750 50.704744                                                 
C 44.375774 66.584318 51.622703                                                 
C 36.201856 62.100451 51.241962                                                 
C 60.257964 52.275316 50.709451                                                 
C 40.298268 64.351772 51.356231                                                 
C 57.767868 61.640443 51.470024                                                 
C 49.815907 66.493082 51.598717                                                 
C 44.064357 52.679888 49.452301                                                 
C 48.075349 50.244608 49.394009                                                 
C 43.960319 47.986573 49.358265                                                 
C 53.821847 64.060550 51.481403                                                 
C 45.476603 54.990829 49.564439                                                 
C 49.484861 52.559644 49.508891                                                 
C 45.093870 36.254478 50.091211                                                 
C 41.353241 52.731123 49.558683                                                 
C 49.370333 47.867339 49.434254                                                 
C 47.768203 36.182041 50.156923                                                 
C 33.120321 43.528353 50.724668                                                 
C 41.255150 48.045536 49.469083                                                 
C 45.265579 45.608575 49.357370                                                 
C 31.820761 45.880246 50.861721                                                 
C 55.958208 40.698702 50.428877                                                 
C 57.349528 43.006384 50.423499                                                 
C 31.995984 55.219673 50.955302                                                 
C 33.386364 57.522990 50.909258                                                 
C 48.188574 54.930156 49.601675                                                 
C 39.950256 50.416484 49.582320                                                 
C 47.971722 45.545952 49.392340                                                 
C 51.846583 38.438703 50.248073                                                 
C 41.124684 38.706860 50.149377                                                 
C 37.113088 41.125614 50.284921                                                 
C 57.685403 57.005469 50.672206                                                 
C 31.908563 50.559644 50.809610                                                 
C 45.696586 64.256475 51.047423                                                 
C 57.443521 47.677783 50.249858                                                 
C 56.388580 59.354763 50.856260                                                 
C 37.481911 59.760615 50.626018                                                 
C 48.392358 64.206796 51.057388                                                 
C 57.558384 52.356431 50.247526                                                 
C 41.594646 62.007928 50.737721                                                 
C 40.051966 55.095195 49.786115                                                 
C 44.177532 57.354573 49.797921                                                 
C 52.192067 52.494356 49.655454                                                 
C 52.072612 47.801822 49.616552                                                 
C 39.857074 45.728729 49.610936                                                 
C 49.171725 38.491883 49.963991                                                 
C 43.872229 43.293505 49.480689                                                 
C 43.794527 38.625604 49.909814                                                 
C 35.798326 43.472107 50.239337                                                 
C 53.254494 40.752773 50.112621                                                 
C 33.191456 48.205463 50.525536                                                 
C 33.274954 52.864030 50.555619                                                 
C 39.790875 41.056536 49.969761                                                 
C 41.465795 57.399536 49.917671                                                 
C 56.057428 45.371152 50.098123                                                 
C 53.477992 50.118974 49.716547                                                 
C 41.168368 43.357726 49.626996                                                 
C 36.072128 57.485417 50.460717                                                 
C 52.406150 61.769514 50.873422                                                 
C 37.248601 50.466040 49.854186                                                 
C 56.172432 50.051049 50.013371                                                 
C 49.276378 43.173060 49.533850                                                 
C 40.171234 59.736503 50.367724                                                 
C 49.599328 57.234437 49.871502                                                 
C 56.288661 54.717039 50.203093                                                 
C 44.291745 61.978198 50.567477                                                 
C 45.184531 40.926768 49.611320                                                 
C 37.163430 45.783112 49.901215                                                 
C 37.350397 55.137049 50.052730                                                 
C 53.367521 45.429838 49.769448                                                 
C 47.880392 40.856128 49.633879                                                 
C 35.855803 48.152046 50.035484                                                 
C 51.971863 43.114973 49.742313                                                 
C 35.951495 52.826230 50.099903                                                 
C 45.591338 59.650914 50.092082                                                 
C 53.698226 59.439711 50.524291                                                 
C 49.705271 61.857852 50.635467                                                 
C 53.597806 54.801161 49.903844                                                 
C 48.300024 59.591209 50.130045                                                 
C 52.303351 57.164430 50.040028                                                 
Li 59.854157 41.382380 40.211162                                                
Li 31.872462 60.633645 41.223283                                                
Li 30.556916 42.063014 40.767177                                                
Li 46.407506 67.628953 40.860874                                                
Li 59.787695 60.233634 40.488120                                                
Li 54.408453 62.378154 40.813886                                                
Li 41.239361 64.947377 41.036796                                                
Li 39.491927 35.691825 40.749888                                                
Li 29.544906 54.031257 41.316582                                                
Li 30.941171 47.875802 40.891585                                                
Li 51.053597 37.795485 40.614664                                                
Li 62.672174 53.406077 40.027512                                                
Li 62.705188 52.518456 47.518432                                                
Li 59.648109 46.992348 40.294541                                                
Li 35.173361 39.306481 40.875670                                                
Li 46.774709 33.843566 40.518185                                                
Li 55.237293 35.268270 40.769233                                                
Li 34.812215 64.796733 40.646394                                                
Li 56.275133 64.222107 33.792489                                                
Li 60.345849 46.991003 46.878295                                                
Li 51.399393 67.020500 33.890740                                                
Li 51.789969 64.723028 47.994176                                                
Li 34.789811 64.353368 48.248526                                                
Li 41.009907 64.859609 47.554738                                                
Li 59.744025 59.817735 48.038546                                                
Li 46.705860 67.626701 48.280888                                                
Li 28.240276 49.134552 47.861155                                                
Li 59.720267 40.774666 47.320637                                                
Li 33.997975 36.753769 47.894331                                                
Li 27.959111 48.018039 34.001786                                                
Li 44.180893 68.008833 33.677700                                                
Li 39.866179 36.093076 33.517278                                                
Li 60.986581 58.576894 33.101586                                                
Li 29.857730 43.124286 47.962959                                                
Li 52.037828 34.532466 33.591234                                                
Li 29.261346 53.163950 34.383036                                                
Li 62.610217 48.325527 33.408390                                                
Li 54.846783 37.943704 47.366375                                                
Li 30.028868 58.117015 48.286242                                                
Li 35.261621 62.916086 34.027537                                                
Li 44.440054 33.614879 33.510588                                                
Li 34.655533 37.196337 33.896293                                                
Li 55.940749 38.074877 33.810898                                                
Li 55.336757 53.267917 40.329462                                                
Li 61.193323 53.365190 33.118276                                                
Li 38.555846 34.323110 47.710007                                                
Li 52.066724 47.388198 40.708006                                                
Li 38.985568 66.760078 34.069073                                                
Li 50.965998 33.793889 47.057036                                                
Li 49.748633 56.394521 40.745721                                                
Li 62.550261 43.380467 33.601715                                                
Li 46.742520 42.743160 40.493520                                                
%ENDBLOCK POSITIONS_ABS                                                         

--------------------------------------------------------------------------------
-------------------------------- END INPUT FILE --------------------------------
--------------------------------------------------------------------------------


 
<<<<<<<<<<<<<<<<<<<<<<<<<<<<<<<<< Full system >>>>>>>>>>>>>>>>>>>>>>>>>>>>>>>>>>
<<<<<<<<<<<<<<<<<<<<<<<<<<< PAW Dataset information >>>>>>>>>>>>>>>>>>>>>>>>>>>
File: ~/pp/paw/c_pbe_abinit.paw; rc = 1.25 bohr; shape type =  3; rshape = 1.25 bohr;
  Atomic number:  6;  ionic charge:  4.000000
    Partial Wave 1: l = 0
    Partial Wave 2: l = 0
    Partial Wave 3: l = 1
    Partial Wave 4: l = 1
  Core charge supplied for Nonlinear Core Corrections
File: ~/pp/paw/h_pbe_abinit.paw; rc = 0.90 bohr; shape type =  3; rshape = 0.90 bohr;
  Atomic number:  1;  ionic charge:  1.000000
    Partial Wave 1: l = 0
    Partial Wave 2: l = 0
File: ~/pp/paw/li_pbe_abinit.paw; rc = 1.42 bohr; shape type =  3; rshape = 1.42 bohr;
  Atomic number:  3;  ionic charge:  3.000000
    Partial Wave 1: l = 0
    Partial Wave 2: l = 0
    Partial Wave 3: l = 0
    Partial Wave 4: l = 1
    Partial Wave 5: l = 1
<<<<<<<<<<<<<<<<<<<<<<<<<<<<<<<<<<<<<<< >>>>>>>>>>>>>>>>>>>>>>>>>>>>>>>>>>>>>>>

-------------------------- Atom counting information ---------------------------
Symbol    Natoms    Nngwfs    Nprojs
  C        484      1936      3872
  H        108       108       216
  Li        52       260       468
.......   ......    ......    ......
Totals:    644      2304      4556
--------------------------------------------------------------------------------

=============================== PSINC grid sizes ===============================
                      Simulation cell:  189 x 189 x 189
                              FFT-box:  117 x 117 x 117
                                  PPD:    7 x   7 x   1
Grid space d1=  0.499927596032a0 (KE cutoff=  30.39413Eh = 827.06648eV)
Grid space d2=  0.499927596032a0 (KE cutoff=  30.39413Eh = 827.06648eV)
Grid space d3=  0.499927596032a0 (KE cutoff=  30.39413Eh = 827.06648eV)
================================================================================
  
WARNING in cell_grid_distribute:
Average of less than one 23-slab per proc, so workload cannot be
equally balanced between procs.

********************* Fourier parallelisation information **********************
       Coarse grid (whole simulation cell) dimensions:    189   189   189
          Real-space ('12') slabs/proc (min max mean):      1     2     1
         Recip-space ('23') slabs/proc (min max mean):      0     1     0
********************************************************************************

********************* Fourier parallelisation information **********************
       Double grid (whole simulation cell) dimensions:    378   378   378
          Real-space ('12') slabs/proc (min max mean):      2     3     2
         Recip-space ('23') slabs/proc (min max mean):      1     2     1
********************************************************************************

Atom SCF Calculation for C  : Z (AE atom) =   6 : Z (PS atom) =   4
Config String: 2s2 2p2
Orbitals (num,occ):  2     2.00 2.00
Orbitals   (num,l):  2        0    1
Real-space Grid (nr,dr,rmax): 1377    0.0065406977    9.0000000000
Spherical Bessel Basis (nsws,lmax,cutoff):   37    2  183.0099912382
Confining potential (l,width,scale):  0    3.0000000000  100.0000000000
Confining potential (l,width,scale):  1    3.0000000000  100.0000000000
  1         -5.4795186097   -1.3252230651    4.5135247139   -1.6370402178
  2         -5.4480873667   -1.4027986130    4.4305957006   -1.6109824140
  3         -5.4553175168   -1.4212842775    4.4102621601   -1.6059044058
  4         -5.4627851864   -1.4247099971    4.4065125496   -1.6052912254
  5         -5.4662317525   -1.4266823431    4.4043718731   -1.6049357348
  6         -5.4679531179   -1.4277361345    4.4032352159   -1.6047498153
  7         -5.4688370531   -1.4282876632    4.4026436340   -1.6046546171
  8         -5.4692962224   -1.4285743132    4.4023378281   -1.6046060967
  9         -5.4695360875   -1.4287229388    4.4021801230   -1.6045813828
 10         -5.4696617783   -1.4287999625    4.4020988354   -1.6045687883
 11         -5.4697277645   -1.4288398966    4.4020569195   -1.6045623641
 12         -5.4697624500   -1.4288606199    4.4020352864   -1.6045590836
 13         -5.4697806994   -1.4288713865    4.4020241086   -1.6045574064
 14         -5.4697903086   -1.4288769875    4.4020183254   -1.6045565478
 15         -5.4697953717   -1.4288799052    4.4020153292   -1.6045561077
 16         -5.4697980412   -1.4288814272    4.4020137746   -1.6045558818
 17         -5.4697994496   -1.4288822223    4.4020129668   -1.6045557657
 18         -5.4698001930   -1.4288826382    4.4020125465   -1.6045557059
 19         -5.4698005858   -1.4288828561    4.4020123274   -1.6045556751
 20         -5.4698007933   -1.4288829704    4.4020122131   -1.6045556592
 21         -5.4698009031   -1.4288830304    4.4020121533   -1.6045556509
 22         -5.4698009612   -1.4288830620    4.4020121220   -1.6045556467
Atom SCF converged after  22 iterations to a total energy of     -5.46980096

Atom SCF Calculation for H  : Z (AE atom) =   1 : Z (PS atom) =   1
Config String: 1s1
Orbitals (num,occ):  1     1.00
Orbitals   (num,l):  1        0
Real-space Grid (nr,dr,rmax): 1377    0.0065406977    9.0000000000
Spherical Bessel Basis (nsws,lmax,cutoff):   37    1  183.0099912382
Confining potential (l,width,scale):  0    3.0000000000  100.0000000000
  1         -0.3687944832   -0.2607687933    0.2820952946   -0.2613406499
  2         -0.4328656062   -0.2590521405    0.2895573663   -0.2701762133
  3         -0.4633856573   -0.2560091938    0.2934204754   -0.2757429988
  4         -0.4750266404   -0.2549676794    0.2946557510   -0.2779015032
  5         -0.4793045155   -0.2546870695    0.2949704774   -0.2786577123
  6         -0.4808919118   -0.2546234645    0.2950332622   -0.2789201171
  7         -0.4814942533   -0.2546130669    0.2950388368   -0.2790132353
  8         -0.4817280090   -0.2546133926    0.2950352123   -0.2790473458
  9         -0.4818204053   -0.2546148712    0.2950319888   -0.2790602287
 10         -0.4818574273   -0.2546158825    0.2950301416   -0.2790652181
 11         -0.4818724050   -0.2546164247    0.2950292178   -0.2790671871
 12         -0.4818785049   -0.2546166894    0.2950287833   -0.2790679748
 13         -0.4818810009   -0.2546168128    0.2950285855   -0.2790682928
 14         -0.4818820255   -0.2546168689    0.2950284970   -0.2790684221
 15         -0.4818824471   -0.2546168940    0.2950284580   -0.2790684748
 16         -0.4818826210   -0.2546169051    0.2950284408   -0.2790684964
 17         -0.4818826928   -0.2546169100    0.2950284333   -0.2790685053
Atom SCF converged after  17 iterations to a total energy of     -0.48188269

Atom SCF Calculation for Li : Z (AE atom) =   3 : Z (PS atom) =   3
Config String: 1s2 2s1 2p0
Orbitals (num,occ):  3     2.00 1.00 0.00
Orbitals   (num,l):  3        0    0    1
Real-space Grid (nr,dr,rmax): 1377    0.0065406977    9.0000000000
Spherical Bessel Basis (nsws,lmax,cutoff):   37    2  183.0099912382
Confining potential (l,width,scale):  0    3.0000000000  100.0000000000
Confining potential (l,width,scale):  1    3.0000000000  100.0000000000
  1         -6.1314629607   -4.7499359229    2.5388576516   -1.0480231927
  2         -7.0450508208   -4.1702030791    2.9795337774   -1.2623862962
  3         -7.3518474013   -3.9564527259    3.2037296734   -1.3880788964
  4         -7.4613386962   -3.8947565558    3.2914990517   -1.4402825036
  5         -7.5001516047   -3.8789668192    3.3221434609   -1.4602864917
  6         -7.5136113510   -3.8755528126    3.3322769691   -1.4678164580
  7         -7.5181182589   -3.8751724459    3.3354399675   -1.4706394447
  8         -7.5195538340   -3.8753832694    3.3363346353   -1.4716958846
  9         -7.5199777516   -3.8756112412    3.3365363545   -1.4720903919
 10         -7.5200869011   -3.8757624244    3.3365501247   -1.4722372325
 11         -7.5201065703   -3.8758489541    3.3365264569   -1.4722916218
 12         -7.5201049812   -3.8758952022    3.3365040630   -1.4723116262
 13         -7.5201006323   -3.8759190019    3.3364892955   -1.4723189110
 14         -7.5200980758   -3.8759285770    3.3364824548   -1.4723210036
 15         -7.5200963811   -3.8759342877    3.3364781194   -1.4723220111
 16         -7.5200953120   -3.8759376792    3.3364754203   -1.4723224913
 17         -7.5200946593   -3.8759396866    3.3364737619   -1.4723227171
 18         -7.5200942701   -3.8759408718    3.3364727530   -1.4723228213
 19         -7.5200940419   -3.8759415700    3.3364721439   -1.4723228682
 20         -7.5200939099   -3.8759419808    3.3364717784   -1.4723228886
 21         -7.5200938343   -3.8759422222    3.3364715600   -1.4723228969
Atom SCF converged after  21 iterations to a total energy of     -7.52009383

Determining parallel strategy ...
... using space-filling curve
... NGWF load balancing: max     17;  min     12;  average     14
... Projector load balancing: max     34;  min     24;  average     28
... done
Calculating Ewald energy ...
              Ewald: real-space energy =   38248.186536
        Ewald: reciprocal-space energy =   38068.551928
         Ewald: (sum_charge)**2 Energy =    2965.863520
         Ewald: (sum_charge**2) Energy =     258.762928
                          Ewald Energy =   73092.112016
Basis initialisation ...... NGWF spheres initialised
... Projector spheres initialised
... NGWF tight boxes initialised
... Projector tight boxes initialised
... Tight-boxes gathered
... NGWF basis size (local,global):     287470  46487864
... PAW projector initialisation
... done

============================= Charge Augmentation ==============================
                           Aug box size:   13 x  13 x  13
================================================================================

========================== Sparse matrix information ===========================
                        Overlap matrix filling:  37.23%
                        Density kernel filling: 100.00%
              NGWF-Proj overlap matrix filling:  10.35%
                    Aug Overlap matrix filling:  41.80%
                    Hamiltonian matrix filling:  41.80%
                  NGWF diagonal matrix filling:   0.17%
                             KS matrix filling: 100.00% 
                           KSKS matrix filling: 100.00% 
================================================================================

Sparse matrix initialisation ... done
NGWF initialisation ...... done
============ Calculation of NGWF S^-1 using Hotelling algorithm ================ 
         Iteration  |  Frobenius norm and Maximum abs value    (of I-S*S_n^-1)   
               1       0.47779950E+02     0.99772750E+00
               2       0.47569080E+02     0.99546450E+00
               3       0.47172559E+02     0.99096635E+00
               4       0.46466415E+02     0.98207720E+00
               5       0.45316746E+02     0.96469782E+00
               6       0.43657766E+02     0.93134850E+00
               7       0.41515077E+02     0.86941353E+00
               8       0.38908386E+02     0.81276339E+00
               9       0.35897590E+02     0.79838577E+00
              10       0.32764759E+02     0.77995735E+00
              11       0.29694335E+02     0.75599697E+00
              12       0.26247945E+02     0.73419636E+00
              13       0.21800538E+02     0.70402391E+00
              14       0.16184909E+02     0.66753577E+00
              15       0.10231930E+02     0.60502603E+00
              16       0.57745349E+01     0.50390660E+00
              17       0.34646166E+01     0.40510979E+00
              18       0.20764407E+01     0.32222924E+00
              19       0.10531877E+01     0.22722064E+00
              20       0.42710674E+00     0.12940102E+00
              21       0.13211487E+00     0.46252576E-01
              22       0.16991219E-01     0.60269121E-02
              23       0.28862784E-03     0.10239114E-03
              24       0.83306023E-07     0.29552934E-07
              25       0.76301860E-13     0.71054274E-14
================================================================================
Calculating core density ...
================================= Core Density =================================
               Core den box size:   21 x  21 x  21
================================================================================
 ... done
Up spin density kernel initialisation ...... done
Down spin density kernel initialisation ...... done

Writing density kernel to file "52/592nano.dkn" ... done

>>> Optimising kernel for current NGWFs:

--------------------------- Ensemble-DFT optimisation --------------------------
Running ScaLAPACK on  160 processor(s).

--------------------------------------------------------------------------------
  Iter                              Commutator    Free_energy(A=E-TS)     DeltaA
#    0                          0.001420137440   -3217.61762712170002  -3.22E+03

Step                       =       0.381966011250
Energy (E)                 =   -3217.569516478813
Entropy (-TS)              =      -0.048110642887
Free energy (A=E-TS)       =   -3217.617627121700
Est. 0K Energy 0.5*(E+A)   =   -3217.593571800257
Residual Non-orthogonality =       0.000000000000
Residual N_electrons       =       0.000000000000

Spin          Integrated_Ne            Fermi_level     Delta_Fermi_level
   1      1100.000000000000        -0.221440834247             -2.21E-01
   2      1100.000000000000        -0.221440834246             -2.21E-01

                           Spin 1           |                 Spin 2           |
     Orb |    H-eigenvalues     Occupancies |    H-eigenvalues     Occupancies |
       1 |    -1.9151000204    1.0000000000 |    -1.9151000204    1.0000000000 | 
                          ------                             ------
    1096 |    -0.2267747565    0.8434756573 |    -0.2267747565    0.8434756573 | 
    1097 |    -0.2248923655    0.7483642860 |    -0.2248923655    0.7483642860 | 
    1098 |    -0.2241773743    0.7035230270 |    -0.2241773743    0.7035230270 | 
    1099 |    -0.2226730752    0.5960686587 |    -0.2226730752    0.5960686587 | 
    1100 |    -0.2219681863    0.5415352118 |    -0.2219681863    0.5415352118 | 
                 - Gap at zero temperature - |     - Gap at zero temperature -
                  Finite temp. Fermi level   |      Finite temp. Fermi level  
    1101 |    -0.2212558156    0.4853980888 |    -0.2212558156    0.4853980888 | 
    1102 |    -0.2189059074    0.3099257146 |    -0.2189059074    0.3099257146 | 
    1103 |    -0.2182826429    0.2694769378 |    -0.2182826429    0.2694769378 | 
    1104 |    -0.2173696087    0.2165999452 |    -0.2173696087    0.2165999452 | 
    1105 |    -0.2164477959    0.1712666340 |    -0.2164477959    0.1712666340 | 
                          ------                             ------
    2304 |     0.5530223278    0.0000000000 |     0.5530223278    0.0000000000 | 

                            |  Abs_value |  Threshold | Converged
     Delta_Free_energy/atom |   5.00E+00 |   1.00E-06 |        No
     Delta_Energy/atom      |   5.00E+00 |   1.00E-04 |        No
     Delta_Entropy/atom     |   7.47E-05 |   1.00E-04 |       Yes
     Commutator             |   1.42E-03 |   1.00E-05 |        No
     Delta_Fermi_level      |   2.21E-01 |   1.00E-03 |        No

  Line search of the free energy minimum:
  Step_type        Step             Free_energy   Predicted_free_energy
.   Initial    0.000000    -3217.61762712170002

Performing  Pulay mixing of Hamiltonian with coefficients:
                        Spin 1               Spin 2
                1.000000000000       1.000000000000
[...]
 C    62 -- C   213       -0.04     -0.00      5.64158
 C   416 -- Li  610       -0.04     -0.00      5.64175
 H   317 -- Li  615       -0.03     -0.00      5.64456
 H   298 -- Li  638       -0.02      0.00      5.64706
 C   240 -- Li  594       -0.05      0.00      5.65097
 C    28 -- Li  629       -0.06     -0.00      5.65105
 C   150 -- Li  607       -0.05      0.00      5.65227
 C    64 -- C   210       -0.04     -0.00      5.65987
 H   458 -- Li  617       -0.01     -0.00      5.66142
 C   502 -- Li  612       -0.04      0.00      5.66218
 C   424 -- Li  636       -0.07      0.00      5.66323
=============================================================


============== Orbital energy and occupancy information for spin 1 =============

      Total number of orbitals:    2304
        Occupancy sum (kernel):    1100.000000037
   Occupancy sum (eigenvalues):    1100.000000037
                 HOMO-LUMO gap:       0.001747250 Eh
                 Mid-gap level:      -0.073075837 Eh

                        Orbital | Energy (Eh) | Occupancy
                            1    -1.852684976   1.0000000
                        .......   ...........   .........
                         1091    -0.090697423   0.9950339
                         1092    -0.089894095   0.9936212
                         1093    -0.088448838   0.9900525
                         1094    -0.084861730   0.9694170
                         1095    -0.081753850   0.9206234
                         1096    -0.080415906   0.8811505
                         1097    -0.078944052   0.8258144
                         1098    -0.074529595   0.5415739
                         1099    -0.074268343   0.5110256
                         1100    -0.073949462   0.4819561
                        ....... -- gap at 0K -- .........
                         1101    -0.072202212   0.3482629
                         1102    -0.071682146   0.3074961
                         1103    -0.070661428   0.2455867
                         1104    -0.070062569   0.2161956
                         1105    -0.068780248   0.1478279
                         1106    -0.068094227   0.1274160
                         1107    -0.067001477   0.0941866
                         1108    -0.066763899   0.0805840
                         1109    -0.066150273   0.0714439
                         1110    -0.065436037   0.0590884
                        .......   ...........   .........
                         2304     0.766929773   0.0000000

================================================================================

============== Orbital energy and occupancy information for spin 2 =============

      Total number of orbitals:    2304
        Occupancy sum (kernel):    1099.999999963
   Occupancy sum (eigenvalues):    1099.999999963
                 HOMO-LUMO gap:       0.001747251 Eh
                 Mid-gap level:      -0.073075837 Eh

                        Orbital | Energy (Eh) | Occupancy
                            1    -1.852684976   1.0000000
                        .......   ...........   .........
                         1091    -0.090697422   0.9950339
                         1092    -0.089894096   0.9936212
                         1093    -0.088448838   0.9900525
                         1094    -0.084861731   0.9694170
                         1095    -0.081753850   0.9206234
                         1096    -0.080415905   0.8811505
                         1097    -0.078944053   0.8258144
                         1098    -0.074529595   0.5415739
                         1099    -0.074268343   0.5110256
                         1100    -0.073949462   0.4819562
                        ....... -- gap at 0K -- .........
                         1101    -0.072202212   0.3482629
                         1102    -0.071682146   0.3074960
                         1103    -0.070661427   0.2455867
                         1104    -0.070062569   0.2161956
                         1105    -0.068780248   0.1478279
                         1106    -0.068094226   0.1274160
                         1107    -0.067001477   0.0941866
                         1108    -0.066763898   0.0805840
                         1109    -0.066150273   0.0714439
                         1110    -0.065436037   0.0590884
                        .......   ...........   .........
                         2304     0.766929773   0.0000000

================================================================================

===================== Writing canonical molecular orbitals =====================
    Spin 1
| Orbital  Energy (eV)  Norm     |
| HOMO     -2.01226725  1.000000 | Writing "52/592nano_HOMO_UP.cube" ... done
Writing "52/592nano_HOMO_UP.dx" ... done
| LUMO     -1.96472216  1.000000 | Writing "52/592nano_LUMO_UP.cube" ... done
Writing "52/592nano_LUMO_UP.dx" ... done
================================================================================

===================== Writing canonical molecular orbitals =====================
    Spin 2
| Orbital  Energy (eV)  Norm     |
| HOMO     -2.01226726  1.000000 | Writing "52/592nano_HOMO_DN.cube" ... done
Writing "52/592nano_HOMO_DN.dx" ... done
| LUMO     -1.96472215  1.000000 | Writing "52/592nano_LUMO_DN.cube" ... done
Writing "52/592nano_LUMO_DN.dx" ... done
================================================================================

================== Local Density of States (LDOS) calculation ==================
Writing "52/592nano_UP_LDOS.txt" ...  done
================================================================================

================== Local Density of States (LDOS) calculation ==================
Writing "52/592nano_DN_LDOS.txt" ...  done
================================================================================
 
=============== Density of States (DOS) calculation for UP spin ================
Writing "52/592nano_UP_DOS.txt" ...  done
================================================================================
 
============== Density of States (DOS) calculation for DOWN spin ===============
Writing "52/592nano_DN_DOS.txt" ...  done
================================================================================
 
Writing bands to file "52/592nano.val_bands" ... done
 
================ Projected Density of States (pDOS) calculation ================
 
Constructing AM resolved functions  ...... done
Writing NGWF plot files in formats: CUBE DX ...  done
 
Performing overlap integrals ...  done
 
Computing pDOS weights ...  done
 
All bands spilling parameter =   2.84 %
Occupancy-weighted spilling parameter =   0.75 %
 
 => Outputting data for OptaDOS <=
 
Writing pDOS weights to file "52/592nano.val_pdos_bin" ... done
 
Writing band gradients to file "52/592nano.val_dome_bin" ... done
 
Writing Castep output cell file to "52/592nano-out.cell" ... done
 
 => Computing Gaussian smeared pDOS for UP spin<= 
Writing "52/592nano_UP_PDOS.txt" ...  done
 
 => Computing Gaussian smeared pDOS for DOWN spin<= 
Writing "52/592nano_DN_PDOS.txt" ...  done
 
 => Computing Occupancy-weighted Gaussian smeared pDOS for UP spin<= 
Writing "52/592nano_occ_UP_PDOS.txt" ...  done
  => Band centres for UP spin channel: 
 S band centre of group 1:  -19.728318 eV
 P band centre of group 1:   -8.317981 eV
  Band centres for UP spin channel done. <= 
  => Integrated number of electrons in each AM band for UP spin channel: 
 S num electrons of group 1:  318.210679
 P num electrons of group 1:  773.497029
  Integrated number of electrons for UP spin channel done. <= 
 
 => Computing Occupancy-weighted Gaussian smeared pDOS for DOWN spin<= 
Writing "52/592nano_occ_DN_PDOS.txt" ...  done
  => Band centres for DOWN spin channel: 
 S band centre of group 1:  -19.728318 eV
 P band centre of group 1:   -8.317981 eV
  Band centres for DOWN spin channel done. <=
  => Integrated number of electrons in each AM band for DOWN spin channel: 
 S num electrons of group 1:  318.210679
 P num electrons of group 1:  773.497029
  Integrated number of electrons for DOWN spin channel done. <=
================================================================================

------------------------------ TIMING INFORMATION ------------------------------
AVERAGE TIME:    8411.588s on    160 proc(s)                                    
TOTAL TIME:      8411.636s on    160 proc(s)                                    
================= AVERAGE TIMINGS FROM ALL PROCS (CUMULATIVE) ==================
|| TAG                                    #calls    cpu time   %total  Gflops ||
|| work_imbalance                       :     1        0.00s   0.000%  ------ ||
|| paw_tcore_density                    :     1        0.01s   0.000%  ------ ||
|| sparse_set_to_garbage                :   228        0.01s   0.000%  ------ ||
|| paw_dij_hartree                      :   251        0.01s   0.000%  ------ ||
|| paw_sphere_density_on_grid           :     1        0.01s   0.000%  ------ ||
|| basis_extract_function_from_box      :   374        0.03s   0.000%  ------ ||
|| ngwfs_initialise_from_radial         :     2        0.03s   0.000%  ------ ||
|| ewald_calculate_energy               :     1        0.10s   0.001%  ------ ||
|| pseudo_make_structure_factor         :     1        0.24s   0.003%  ------ ||
|| paw_dataset_init                     :     3        0.28s   0.003%  ------ ||
|| paw_tcore_hartree_on_grid            :     1        0.43s   0.005%  ------ ||
|| density_init_guess_real              :     1        0.67s   0.008%  ------ ||
|| dense_normal_eigensolve              :     1        0.93s   0.011%  ------ ||
|| sparse_init                          :     1        1.08s   0.013%  ------ ||
|| restart_kernel_write                 :    14        1.18s   0.014%  ------ ||
|| paw_species_calc_proj_prec_mat       :     1        1.52s   0.018%  ------ ||
|| augmentation_screen_dij              :   175        2.66s   0.032%  ------ ||
|| sw_init                              :     1        5.01s   0.060%  ------ ||
|| paw_dij_xc                           :   251        6.19s   0.074%  ------ ||
|| ngwf_gradient_coeffs                 :    13        6.73s   0.080%  ------ ||
|| sparse_embed_hotelling_invert_embed  :    26        6.75s   0.080%  ------ ||
|| basis_copy_function_to_box           :  7675        7.76s   0.092%  ------ ||
|| hartree_on_grid                      :   170       10.77s   0.128%  ------ ||
|| aug_nonlocal_mat                     :   238       12.21s   0.145%  ------ ||
|| fourier_apply_box_pair               :   941       13.68s   0.163%  1.818k ||
|| projectors_init_fftbox_recip         :    80       20.35s   0.242%  ------ ||
|| augmentation_density_on_grid         :   170       23.27s   0.277%  ------ ||
|| sparse_trace                         :  7872       26.92s   0.320%  ------ ||
|| basis_dot_function_with_box          : 2.209M      42.46s   0.505%  ------ ||
|| projectors_func_ovlp_box             :    27       47.58s   0.566%  ------ ||
|| integrals_kinetic                    :    26       60.22s   0.716%  ------ ||
|| eigenstates_pdos                     :     1       73.05s   0.868%  ------ ||
|| function_ops_brappd_ketppd           :    54      105.51s   1.254%  ------ ||
|| hamiltonian_energy_components        :     3      112.67s   1.339%  ------ ||
|| eigenstates_calculate                :     1      139.23s   1.655%  ------ ||
|| dense_eigensolve                     :   278      143.42s   1.705%  ------ ||
|| basis_add_function_to_box            : 5.484M     151.41s   1.800%  ------ ||
|| fourier_apply_cell_forward           :  6254      155.60s   1.850% 139.898 ||
|| restart_ngwfs_tightbox_output        :    12      184.53s   2.194%  ------ ||
|| sparse_product                       : 11330      225.90s   2.686%  ------ ||
|| fourier_apply_cell_backward          :  6931      231.46s   2.752% 104.226 ||
|| cell_grid_deposit_box_real           : 12673      246.14s   2.926%  ------ ||
|| density_batch_row_sums               :   340      383.17s   4.555%  ------ ||
|| cell_grid_extract_box_real           :  4930      387.42s   4.606%  ------ ||
|| integrals_locpot_mat_els_batch       :   302      396.66s   4.716%  ------ ||
|| projectors_gradient_batch            :    26      433.13s   5.149%  ------ ||
|| edft_diag_ngwf_ham                   :   276      436.45s   5.189%  ------ ||
|| xc_energy_potential                  :   169      437.81s   5.205%  ------ ||
|| density_fftbox_deposit_to_cell       :  5780      503.14s   5.981%  ------ ||
|| density_fftbox_interpolate_multiply  :  5780      503.60s   5.987%  ------ ||
|| fourier_apply_box                    : 25501      529.68s   6.297%  4.138k ||
|| nlxc_vdw_energy                      :   338      586.30s   6.970%  ------ ||
|| edft_apply_smearing_operator         :   138      682.66s   8.116%  ------ ||
|| potential_apply_to_ngwf_batch        :   302      757.79s   9.009%  ------ ||
|| properties_calculate                 :     1      929.80s  11.054%  ------ ||
|| projectors_grad_precond_batch        :    26     1099.97s  13.077%  ------ ||
|| integrals_locpot_dbl_grid            :   151     1157.18s  13.757%  ------ ||
|| density_batch_interp_deposit         :   340     1322.22s  15.719%  ------ ||
|| ngwf_gradient_build_batch            :    26     1690.80s  20.101%  ------ ||
|| density_on_dbl_grid                  :   170     1830.55s  21.762%  ------ ||
|| ngwf_gradient_batch                  :    26     1839.77s  21.872%  ------ ||
|| hamiltonian_lhxc_calculate           :   165     2317.80s  27.555%  ------ ||
|| ngwf_gradient_lnv                    :    13     2448.71s  29.111%  ------ ||
|| edft_calculate                       :    13     4110.06s  48.862%  ------ ||
|| ngwf_cg_optimise                     :     1     7450.43s  88.573%  ------ ||
|| total_time                           :     1     8411.59s 100.000%  ------ ||
================================================================================
==================== AVERAGE TIMINGS FROM ALL PROCS (SELF) =====================
++ TAG                                    #calls    cpu time   %total  Gflops ++
++ nlxc_vdw_energy                      :   338       -4.65s  -0.055%  ------ ++
++ work_imbalance                       :     1        0.00s   0.000%  ------ ++
++ paw_tcore_density                    :     1        0.00s   0.000%  ------ ++
++ paw_sphere_density_on_grid           :     1        0.01s   0.000%  ------ ++
++ sparse_set_to_garbage                :   228        0.01s   0.000%  ------ ++
++ paw_dij_hartree                      :   251        0.01s   0.000%  ------ ++
++ paw_tcore_hartree_on_grid            :     1        0.01s   0.000%  ------ ++
++ basis_extract_function_from_box      :   374        0.03s   0.000%  ------ ++
++ ngwfs_initialise_from_radial         :     2        0.03s   0.000%  ------ ++
++ sparse_embed_hotelling_invert_embed  :    26        0.04s   0.001%  ------ ++
++ ngwf_gradient_coeffs                 :    13        0.06s   0.001%  ------ ++
++ ewald_calculate_energy               :     1        0.10s   0.001%  ------ ++
++ pseudo_make_structure_factor         :     1        0.24s   0.003%  ------ ++
++ paw_dataset_init                     :     3        0.28s   0.003%  ------ ++
++ density_init_guess_real              :     1        0.37s   0.004%  ------ ++
++ hartree_on_grid                      :   170        0.49s   0.006%  ------ ++
++ aug_nonlocal_mat                     :   238        0.69s   0.008%  ------ ++
++ dense_normal_eigensolve              :     1        0.93s   0.011%  ------ ++
++ sparse_init                          :     1        1.08s   0.013%  ------ ++
++ restart_kernel_write                 :    14        1.18s   0.014%  ------ ++
++ paw_species_calc_proj_prec_mat       :     1        1.27s   0.015%  ------ ++
++ hamiltonian_energy_components        :     3        1.85s   0.022%  ------ ++
++ main_program_(onetep.F90)            :     1        2.08s   0.025%  ------ ++
++ augmentation_screen_dij              :   175        2.16s   0.026%  ------ ++
++ integrals_locpot_dbl_grid            :   151        2.73s   0.032%  ------ ++
++ sw_init                              :     1        5.01s   0.060%  ------ ++
++ paw_dij_xc                           :   251        6.19s   0.074%  ------ ++
++ augmentation_density_on_grid         :   170        6.31s   0.075%  ------ ++
++ basis_copy_function_to_box           :  7675        7.76s   0.092%  ------ ++
++ fourier_apply_box_pair               :   941       13.68s   0.163%  1.818k ++
++ projectors_init_fftbox_recip         :    80       20.35s   0.242%  ------ ++
++ sparse_trace                         :  7872       26.92s   0.320%  ------ ++
++ projectors_func_ovlp_box             :    27       27.96s   0.332%  ------ ++
++ basis_dot_function_with_box          : 2.209M      42.46s   0.505%  ------ ++ (!) overhead: ~   5.6%
++ edft_calculate                       :    13       44.94s   0.534%  ------ ++
++ eigenstates_calculate                :     1       48.87s   0.581%  ------ ++
++ integrals_kinetic                    :    26       51.58s   0.613%  ------ ++
++ eigenstates_pdos                     :     1       59.71s   0.710%  ------ ++
++ ngwf_gradient_build_batch            :    26       65.93s   0.784%  ------ ++
++ xc_energy_potential                  :   169       66.11s   0.786%  ------ ++
++ hamiltonian_lhxc_calculate           :   165       77.92s   0.926%  ------ ++
++ ngwf_gradient_batch                  :    26       93.31s   1.109%  ------ ++
++ function_ops_brappd_ketppd           :    54      105.51s   1.254%  ------ ++
++ density_on_dbl_grid                  :   170      125.17s   1.488%  ------ ++
++ dense_eigensolve                     :   278      143.42s   1.705%  ------ ++
++ basis_add_function_to_box            : 5.484M     151.41s   1.800%  ------ ++ (!) overhead: ~   3.9%
++ fourier_apply_cell_forward           :  6254      155.60s   1.850% 139.898 ++
++ restart_ngwfs_tightbox_output        :    12      184.52s   2.194%  ------ ++
++ density_fftbox_interpolate_multiply  :  5780      191.81s   2.280%  ------ ++
++ ngwf_cg_optimise                     :     1      194.46s   2.312%  ------ ++
++ sparse_product                       : 11330      225.90s   2.686%  ------ ++
++ edft_apply_smearing_operator         :   138      231.07s   2.747%  ------ ++
++ fourier_apply_cell_backward          :  6931      231.46s   2.752% 104.226 ++
++ cell_grid_deposit_box_real           : 12673      246.14s   2.926%  ------ ++
++ density_fftbox_deposit_to_cell       :  5780      258.27s   3.070%  ------ ++
++ density_batch_interp_deposit         :   340      280.19s   3.331%  ------ ++
++ density_batch_row_sums               :   340      289.68s   3.444%  ------ ++
++ edft_diag_ngwf_ham                   :   276      294.17s   3.497%  ------ ++
++ integrals_locpot_mat_els_batch       :   302      362.32s   4.307%  ------ ++
++ cell_grid_extract_box_real           :  4930      387.42s   4.606%  ------ ++
++ projectors_gradient_batch            :    26      419.68s   4.989%  ------ ++
++ potential_apply_to_ngwf_batch        :   302      461.31s   5.484%  ------ ++
++ properties_calculate                 :     1      527.15s   6.267%  ------ ++
++ fourier_apply_box                    : 25501      529.68s   6.297%  4.138k ++
++ ngwf_gradient_lnv                    :    13      602.20s   7.159%  ------ ++
++ projectors_grad_precond_batch        :    26     1082.95s  12.874%  ------ ++
================================================================================
(!) WARNING: You're wasting precious cycles calling timer. 
             Each pair of timer_clock calls itself cost   1.08 microseconds!
Overhead of generating timer report: 
- 0 ms averaging over threads,
- 20 ms ensuring consistency across MPI ranks,
- 0 ms printing in order.

Job completed: 17-12-2021 05:06 (-0000)

