 +---------------------------------------------------------------+
 |                                                               |
 |        ####### #     # ####### ####### ####### ######         |
 |        #     # ##    # #          #    #       #     #        |
 |        #     # # #   # #          #    #       #     #        |
 |        #     # #  #  # #####      #    #####   ######         |
 |        #     # #   # # #          #    #       #              |
 |        #     # #    ## #          #    #       #              |
 |        ####### #     # #######    #    ####### #              |
 |                                                               |
 |        Linear-Scaling Ab Initio Total Energy Program          |
 |                                                               |
 |          Release for academic collaborators of ODG            |
 |                                             Version 5.3.2.12  |
 |                                                               |
 +---------------------------------------------------------------+
 |                                                               |
 |  Authors:                                                     |
 |  Jacek Dziedzic, Peter D. Haynes, Nicholas D. M. Hine,        |
 |  Arash. A. Mostofi, Mike C. Payne and Chris-Kriton Skylaris   |
 |                                                               |
 |  Contributors:                                                |
 |  J. Aarons, L. Andrinopoulos, P. W. Avraam, R. A. Bell,       |
 |  A. Bhandari, G. A. Bramley, R. J. Charlton, S. J. Clark,     |
 |  R. J. Clements, G. C. Constantinescu, F. Corsetti,           |
 |  N. Corsini, O. Dieguez, S. M. M. Dubois, K. K. B. Duff,      |
 |  J. M. Escartin, A. Greco, H. Helal, Q. O. Hill, L. P. Lee,   |
 |  J.-H. Li, E. B. Linscott, G. Moynihan, D. D. O`Regan,        |
 |  O. K. Okan, M. J. S. Phipps, C. J. Pickard,                  |
 |  J. C. A. Prentice, M. I. J. Probert, L. E. Ratcliff,         |
 |  M. Robinson, A. Ruiz Serrano, J. S. Spencer, E. W. Tait,     |
 |  G. Teobaldi, D. Turban, V. Vitale, K. A. Wilkinson,          |
 |  C. Weber, J. C. Womack, N. Yeung and T. J. Zuehlsdorff       |
 |                                                               |
 |                                   Copyright (c) 2004-2020     |
 |                                                               |
 |  Please cite:                                                 |
 |  "Introducing ONETEP: Linear-scaling density functional       |
 |   simulations on parallel computers".                         |
 |   C.-K. Skylaris, P. D. Haynes, A. A. Mostofi, M. C. Payne.   |
 |   J. Chem. Phys. 122 084119 (2005).                           |
 |                                                               |
 |          in all publications arising from your use of ONETEP. |
 |                                                               |
 +---------------------------------------------------------------+
 |                                                               |
 |   ONETEP is based on developments described in the following  |
 |   publications:                                               |
 |                                                               |
 |  "Nonorthogonal generalized Wannier function pseudopotential  |
 |   plane-wave method".                                         |
 |   C.-K. Skylaris, A. A. Mostofi, P. D. Haynes, O. Dieguez,    |
 |   M. C. Payne.                                                |
 |   Phys. Rev. B 66 035119 (2002).                              |
 |                                                               |
 |  "Preconditioned iterative minimization for linear-scaling    |
 |   electronic structure calculations".                         |
 |   A. A. Mostofi, P. D. Haynes, C.-K. Skylaris, M. C. Payne.   |
 |   J. Chem. Phys. 119(17), pp.8842-8848 (2003).                |
 |                                                               |
 |  "Total-energy calculations on a real space grid with         |
 |   localized functions and a plane-wave basis".                |
 |   A. A. Mostofi, C.-K. Skylaris, P. D. Haynes, M. C. Payne.   |
 |   Comput. Phys. Commun. 147, pp.788-802 (2002).               |
 |                                                               |
 |  "Accurate kinetic energy evaluation in electronic structure  |
 |   calculations with localized functions on real space grids"  |
 |   C.-K. Skylaris, A. A. Mostofi, P. D. Haynes, C. J. Pickard, |
 |   M. C. Payne.                                                |
 |   Comput. Phys. Commun. 140, pp.315-322 (2001).               |
 |                                                               |
 |  "Accurate ionic forces and geometry optimization in linear-  |
 |   scaling density-functional theory with local orbitals"      |
 |   N. D. M. Hine, M. Robinson, P. D. Haynes, C.-K. Skylaris,   |
 |   M. C. Payne, and A. A. Mostofi.                             |
 |   Phys. Rev. B 83 195102 (2011).                              |
 |                                                               |
 +---------------------------------------------------------------+

Job started: 11-05-2020 22:42 (+0100)
 
Reading parameters from file "2/592nano.dat" ...... done

If your calculation crashes here, before "Checking processes and threads..."
is displayed, then your stack size is insufficient.
If so, use "ulimit -s unlimited" at runtime.
You can disable this check with "check_stack_size F".

Checking processes and threads...
   Determining the default number of threads...
      No default threads set at compilation time: defaulting to 1.
      OpenMP library call suggests 4 threads.
      Hybrid MPI-OpenMP compilation detected.
      Number of MPI processes > 1.
      OMP_NUM_THREADS environment variable present and
      its value matches the one obtained from the OpenMP library call.
      Using this value as default.
      Default threads: 4
      Default applies to threads_max and threads_num_fftboxes.
      Settings in the input file override this default.
   ... done

   Running with 120 MPI processes.
   There are 10 MPI processes running on the same node as the root process.
   Each MPI process is using: 
               1 threads for simulation cell FFTs.
               1 threads for parallel FFT box operations.
               4 threads for loops over batched FFT box operations.
               4 threads in other parallel regions.
... done

Basic input checks...
Resetting ngwf_cg_rotate to TRUE for EDFT calculations
... done

Reading geometry and species blocks from file "2/592nano.dat" ...    
  Number of PPD points along a3 set to 1.  This is 
  the default value, it may have been provided also in the input file.
... done
 Writing xyz coordinates to file "2/592nano.xyz" ... done


--------------------------------------------------------------------------------
---------------------------------- INPUT FILE ----------------------------------
--------------------------------------------------------------------------------

task : singlepoint                                                              
do_properties : true                                                            
dx_format T                                                                     
edft T                                                                          
output_detail VERBOSE                                                           
write_xyz T                                                                     
dispersion 4                                                                    
xc_functional PBE                                                               
cutoff_energy 830 eV                                                            
paw T                                                                           
geom_disp_tol 0.015 bohr                                                        
geom_energy_tol 1.5E-6 hartree                                                  
geom_force_tol 0.003 "ha/bohr"                                                  
EDFT_MAXIT 30                                                                   
pdos_max_l = 2                                                                  
dos_smear  0.1 eV                                                               
popn_calculate T                                                                
PDOS_PSEUDOATOMIC T                                                             
PDOS_REDUCE_SWS F                                                               
PDOS_CONSTRUCT_BASIS F                                                          
PDOS_LOWDIN T                                                                   
PDOS_ORTH_ATOM_BLOCKS F                                                         
PDOS_LCAO_OPTIMIZE F                                                            
pdos_optados_output T                                                           
homo_plot 0                                                                     
lumo_plot 0                                                                     
homo_dens_plot -1                                                               
lumo_dens_plot -1                                                               
%BLOCK SPECIES                                                                  
C C 6 4 9.0                                                                     
H H 1 1 9.0                                                                     
Li Li 3 5 9.0                                                                   
%ENDBLOCK SPECIES                                                               
%BLOCK SPECIES_POT                                                              
C "~/pp/paw/c_pbe_abinit.paw"                                                   
H "~/pp/paw/h_pbe_abinit.paw"                                                   
Li "~/pp/paw/li_pbe_abinit.paw"                                                 
%ENDBLOCK SPECIES_POT                                                           
%BLOCK SPECIES_ATOMIC_SET                                                       
C "SOLVE conf=2s2 2p2"                                                          
H "SOLVE conf=1s1"                                                              
Li "SOLVE conf=1s2 2s1 2p0"                                                     
%ENDBLOCK SPECIES_ATOMIC_SET                                                    
%BLOCK LATTICE_CART                                                             
94.486315650000      0.000000000000       0.000000000000                        
0.000000000000       94.486315650000      0.000000000000                        
0.000000000000       0.000000000000       94.486315650000                       
%ENDBLOCK LATTICE_CART                                                          
%BLOCK POSITIONS_ABS                                                            
C 45.476214 50.699968 30.668724                                                 
C 45.442622 50.614134 36.823076                                                 
C 46.825709 53.029006 30.665982                                                 
C 48.127330 50.614321 36.821670                                                 
C 49.512071 48.377832 30.664745                                                 
C 49.468605 48.288400 36.819028                                                 
C 50.860508 50.705040 30.663202                                                 
C 52.154192 48.288348 36.816988                                                 
C 45.484429 55.357141 30.666243                                                 
C 45.444342 55.264596 36.820050                                                 
C 46.833333 57.686425 30.667598                                                 
C 48.129279 55.266537 36.819563                                                 
C 49.515832 53.032318 30.665882                                                 
C 49.469360 52.940291 36.819904                                                 
C 50.863951 55.361616 30.667227                                                 
C 52.154705 52.940777 36.818170                                                 
C 45.402876 50.497994 42.974563                                                 
C 45.374165 50.401444 49.130742                                                 
C 46.745429 52.822830 42.976889                                                 
C 48.061456 50.401246 49.133602                                                 
C 49.430971 48.173718 42.977839                                                 
C 49.404472 48.073953 49.134579                                                 
C 50.775328 50.497677 42.979715                                                 
C 52.092967 48.074015 49.136025                                                 
C 45.402198 55.147797 42.980176                                                 
C 45.374328 55.055942 49.135077                                                 
C 46.744668 57.473313 42.984862                                                 
C 48.061735 55.056050 49.138331                                                 
C 49.431148 52.821783 42.980086                                                 
C 49.404611 52.728375 49.135249                                                 
C 50.774270 55.146959 42.984747                                                 
C 52.093043 52.727871 49.137976                                                 
C 57.594702 48.384159 30.676754                                                 
C 57.520810 48.285348 36.828315                                                 
C 58.938001 50.710203 30.686699                                                 
C 60.235219 48.288478 36.848524                                                 
C 57.501463 48.174744 42.970568                                                 
C 57.468386 48.070701 49.107725                                                 
C 58.844583 50.497288 42.965668                                                 
C 60.186287 48.073600 49.057602                                                 
C 53.551611 50.707917 30.664273                                                 
C 53.493336 50.614405 36.817656                                                 
C 54.898393 53.036690 30.666968                                                 
C 56.186088 50.614479 36.823142                                                 
C 53.462687 50.497532 42.981891                                                 
C 53.434731 50.400881 49.133737                                                 
C 54.806845 52.822124 42.981916                                                 
C 56.131068 50.400642 49.124791                                                 
C 57.595087 43.735421 30.699242                                                 
C 57.520732 43.624412 36.830989                                                 
C 58.935911 46.053717 30.695434                                                 
C 60.237233 43.640493 36.853708                                                 
C 57.498041 43.532276 42.956994                                                 
C 57.465463 43.408518 49.091537                                                 
C 58.840043 45.846295 42.957975                                                 
C 60.184431 43.424299 49.036860                                                 
C 53.551636 46.056904 30.664686                                                 
C 53.494364 45.958138 36.816930                                                 
C 54.896641 48.380841 30.663908                                                 
C 56.185252 45.958487 36.822873                                                 
C 53.463132 45.852392 42.977473                                                 
C 53.434814 45.743031 49.132576                                                 
C 54.806743 48.172794 42.978470                                                 
C 56.129271 45.743759 49.118753                                                 
C 57.595514 57.685355 30.715734                                                 
C 57.521558 57.604328 36.857975                                                 
C 58.941530 60.047905 30.777609                                                 
C 60.237544 57.588120 36.886724                                                 
C 57.498263 57.462118 42.972876                                                 
C 57.465729 57.392570 49.114593                                                 
C 58.842377 59.822469 42.959072                                                 
C 60.184712 57.376691 49.063812                                                 
C 45.486737 64.678142 30.718244                                                 
C 45.458996 64.571148 36.860601                                                 
C 46.860652 67.025439 30.780690                                                 
C 48.133945 64.575460 36.871503                                                 
C 49.524774 62.348728 30.707880                                                 
C 49.480677 62.251929 36.850757                                                 
C 50.886938 64.701509 30.766595                                                 
C 52.163776 62.253446 36.866715                                                 
C 45.389352 64.453301 42.977028                                                 
C 45.384131 64.369589 49.116688                                                 
C 46.761462 66.797666 42.964545                                                 
C 48.061380 64.370251 49.129262                                                 
C 49.426154 62.122599 42.985961                                                 
C 49.410538 62.044727 49.143870                                                 
C 50.785814 64.471395 42.977849                                                 
C 52.096122 62.043550 49.141896                                                 
C 53.559404 60.018943 30.707265                                                 
C 53.503085 59.928897 36.850415                                                 
C 54.916377 62.374585 30.766020                                                 
C 56.188699 59.923621 36.870471                                                 
C 53.460981 59.793175 42.985320                                                 
C 53.439312 59.718088 49.143505                                                 
C 54.815411 62.145126 42.976808                                                 
C 56.128169 59.711617 49.128233                                                 
C 57.594969 53.036094 30.680519                                                 
C 57.521221 52.943604 36.833068                                                 
C 58.935132 55.367667 30.705051                                                 
C 60.235236 52.940616 36.855067                                                 
C 57.501498 52.819872 42.973652                                                 
C 57.468435 52.730492 49.112972                                                 
C 58.840065 55.148194 42.965235                                                 
C 60.186318 52.727466 49.064275                                                 
C 45.488528 60.016852 30.672764                                                 
C 45.450641 59.917014 36.824583                                                 
C 46.838770 62.351411 30.691325                                                 
C 48.131955 59.919933 36.828285                                                 
C 49.521066 57.687781 30.672751                                                 
C 49.472688 57.593300 36.822206                                                 
C 50.872027 60.024266 30.688729                                                 
C 52.157939 57.594798 36.827720                                                 
C 45.397022 59.799496 42.985778                                                 
C 45.377579 59.711939 49.140355                                                 
C 46.742550 62.129577 42.984767                                                 
C 48.061529 59.711907 49.146153                                                 
C 49.429304 57.469723 42.987178                                                 
C 49.405456 57.383817 49.142801                                                 
C 50.775675 59.801651 42.988148                                                 
C 52.093658 57.383280 49.145918                                                 
C 53.556149 55.360607 30.671573                                                 
C 53.495252 55.270969 36.823087                                                 
C 54.904382 57.694847 30.689975                                                 
C 56.186074 55.270658 36.833328                                                 
C 53.463344 55.142654 42.984993                                                 
C 53.434962 55.058677 49.139837                                                 
C 54.808557 57.472830 42.983347                                                 
C 56.129410 55.057454 49.129586                                                 
H 27.314701 41.327592 31.376325                                                 
H 28.266932 39.569683 36.935297                                                 
H 27.247990 41.153809 42.827283                                                 
H 28.188130 39.348467 48.865481                                                 
H 41.825048 30.282562 30.833746                                                 
C 42.868782 32.067339 30.760278                                                 
H 44.464683 30.216169 36.883735                                                 
H 41.707929 30.101255 42.788852                                                 
C 42.759928 31.881586 42.838191                                                 
H 44.390910 29.991129 48.856496                                                 
H 29.636223 37.302276 31.314778                                                 
C 30.648831 39.066429 30.940004                                                 
H 32.313757 37.240146 36.882557                                                 
H 33.725924 34.898687 30.795538                                                 
C 34.735239 36.700031 30.649101                                                 
H 29.582153 37.101826 42.792974                                                 
C 30.600220 38.902246 42.838307                                                 
H 32.230602 37.017934 48.894233                                                 
H 33.622314 34.771512 42.806942                                                 
C 34.656953 36.565377 42.850379                                                 
H 37.789175 32.596079 30.749302                                                 
C 38.806161 34.396837 30.688667                                                 
H 40.434193 32.554518 36.856366                                                 
H 37.674811 32.431970 42.806846                                                 
C 38.709182 34.225812 42.851916                                                 
H 40.354702 32.328382 48.889111                                                 
H 46.499937 30.301385 30.876072                                                 
H 46.386716 30.106138 42.817623                                                 
H 25.931467 48.281818 36.888159                                                 
C 28.002612 48.280083 36.851628                                                 
H 25.860895 48.062175 48.972394                                                 
C 27.930373 48.061784 49.033970                                                 
H 25.928277 43.619653 36.922774                                                 
H 27.266955 46.070099 30.906955                                                 
C 27.997059 43.598476 36.869813                                                 
H 25.854586 43.397538 48.905281                                                 
H 27.258184 45.812725 42.887333                                                 
C 27.921498 43.376843 48.975675                                                 
H 25.932282 57.620673 36.919402                                                 
H 27.329757 60.081234 30.919873                                                 
C 28.000860 57.639811 36.889464                                                 
H 25.855265 57.410458 48.919155                                                 
H 27.249810 59.848093 42.891371                                                 
C 27.922016 57.431105 48.992260                                                 
H 25.933311 52.962083 36.892342                                                 
H 27.325755 55.426967 30.881129                                                 
C 28.004393 52.959348 36.862367                                                 
H 25.861252 52.745458 48.975769                                                 
H 27.259293 55.188800 42.909016                                                 
C 27.930670 52.745799 49.038133                                                 
C 29.340899 41.330345 30.971247                                                 
C 29.288181 41.366451 36.874934                                                 
C 30.601585 43.738075 30.690102                                                 
C 32.004873 41.285439 36.832296                                                 
C 33.360313 38.964911 30.649456                                                 
C 33.350603 39.029655 36.834402                                                 
C 34.693574 41.361533 30.544852                                                 
C 36.032268 38.960287 36.812550                                                 
C 29.327068 46.052908 30.723571                                                 
C 29.289629 45.984507 36.838554                                                 
C 30.629459 48.396029 30.691439                                                 
C 32.007270 45.963806 36.814353                                                 
C 33.344986 43.697894 30.563856                                                 
C 33.347988 43.647877 36.809133                                                 
C 34.693691 46.043865 30.600764                                                 
C 36.038093 43.636192 36.802520                                                 
C 29.314803 41.135700 42.857761                                                 
C 29.209446 41.143512 48.956923                                                 
C 30.606352 43.525969 42.906581                                                 
C 31.926539 41.063759 49.021116                                                 
C 33.313053 38.827915 42.873538                                                 
C 33.269763 38.804847 48.983983                                                 
C 34.656442 41.189445 42.921818                                                 
C 35.952007 38.736352 49.033513                                                 
C 29.326470 45.818051 42.912571                                                 
C 29.215529 45.763631 49.043165                                                 
C 30.607950 48.174112 42.939380                                                 
C 31.933609 45.744694 49.093415                                                 
C 33.323076 43.508522 42.935121                                                 
C 33.272149 43.426099 49.083044                                                 
C 34.658204 45.842695 42.961224                                                 
C 35.963057 43.415117 49.110434                                                 
C 41.438151 39.049162 30.632538                                                 
C 41.420956 38.985678 36.807790                                                 
C 42.783122 41.386176 30.642466                                                 
C 44.104263 38.979913 36.811226                                                 
C 41.365392 38.861657 42.945368                                                 
C 41.344323 38.761374 49.091963                                                 
C 42.714099 41.193521 42.969115                                                 
C 44.029491 38.757485 49.108312                                                 
C 37.398954 41.362568 30.580221                                                 
C 37.385460 41.314391 36.802292                                                 
C 38.737570 43.704190 30.624841                                                 
C 40.070935 41.307046 36.804158                                                 
C 37.342373 41.184155 42.944507                                                 
C 37.308174 41.091499 49.093003                                                 
C 38.687176 43.518246 42.969291                                                 
C 39.995223 41.084665 49.112166                                                 
C 41.439060 34.375795 30.692099                                                 
C 41.462950 34.348090 36.831737                                                 
C 42.804027 36.726791 30.654486                                                 
C 44.087735 34.311111 36.832697                                                 
C 41.340344 34.193848 42.875814                                                 
C 41.382864 34.121269 48.980187                                                 
C 42.712662 36.538424 42.924023                                                 
C 44.010867 34.086146 49.015866                                                 
C 37.402140 36.671320 30.636310                                                 
C 37.407706 36.687922 36.822910                                                 
C 38.748318 39.038211 30.611573                                                 
C 40.062450 36.635506 36.815975                                                 
C 37.326550 36.509971 42.880798                                                 
C 37.325567 36.461278 48.989256                                                 
C 38.682365 38.859752 42.927585                                                 
C 39.983086 36.409516 49.031995                                                 
C 41.436812 48.368477 30.667326                                                 
C 41.415047 48.289419 36.818392                                                 
C 42.785848 50.696570 30.668600                                                 
C 44.100248 48.288775 36.820914                                                 
C 41.375518 48.172498 42.978200                                                 
C 41.343294 48.074373 49.134422                                                 
C 42.717563 50.498155 42.975615                                                 
C 44.030738 48.074071 49.133667                                                 
C 29.392009 55.411559 30.785239                                                 
C 29.293160 55.253762 36.860684                                                 
C 30.682873 57.703458 30.761145                                                 
C 32.010383 55.268646 36.838898                                                 
C 33.379322 53.044022 30.681055                                                 
C 33.347872 52.939133 36.824169                                                 
C 34.726546 55.368097 30.681729                                                 
C 36.042138 52.940033 36.818611                                                 
C 29.327411 55.182857 42.933893                                                 
C 29.215837 55.043595 49.052820                                                 
C 30.607704 57.474502 42.942775                                                 
C 31.934040 55.061000 49.102786                                                 
C 33.322917 52.828783 42.966917                                                 
C 33.272756 52.729224 49.122943                                                 
C 34.659094 55.155626 42.972548                                                 
C 35.967854 52.730669 49.136471                                                 
C 37.405837 50.697491 30.661760                                                 
C 37.385263 50.614691 36.815999                                                 
C 38.756597 53.027567 30.668975                                                 
C 40.071806 50.614220 36.818617                                                 
C 37.350810 50.498675 42.979543                                                 
C 37.311338 50.402111 49.136544                                                 
C 38.690113 52.824682 42.980087                                                 
C 39.999593 50.401838 49.136796                                                 
C 41.431285 43.710582 30.649408                                                 
C 41.416813 43.640110 36.809953                                                 
C 42.779980 46.041750 30.662314                                                 
C 44.100922 43.637281 36.813305                                                 
C 41.372828 43.519704 42.976164                                                 
C 41.343207 43.419712 49.128703                                                 
C 42.716206 45.846283 42.978377                                                 
C 44.029749 43.418390 49.133750                                                 
C 29.365227 50.729717 30.756656                                                 
C 29.290151 50.619487 36.841830                                                 
C 30.662155 53.052696 30.728598                                                 
C 32.004012 50.616704 36.822480                                                 
C 33.356595 48.374406 30.649995                                                 
C 33.346413 48.292827 36.812841                                                 
C 34.707671 50.701605 30.659702                                                 
C 36.040870 48.289455 36.810883                                                 
C 29.327333 50.500456 42.933480                                                 
C 29.217013 50.403510 49.067803                                                 
C 30.608516 52.826468 42.947405                                                 
C 31.931148 50.402855 49.112323                                                 
C 33.322433 48.170111 42.961531                                                 
C 33.272559 48.076291 49.119284                                                 
C 34.657734 50.499212 42.972365                                                 
C 35.967731 48.073756 49.134083                                                 
C 37.391367 46.034953 30.634134                                                 
C 37.383498 45.967834 36.808359                                                 
C 38.742005 48.366389 30.658584                                                 
C 40.072063 45.963523 36.812121                                                 
C 37.349223 45.842059 42.973863                                                 
C 37.309364 45.749065 49.129904                                                 
C 38.689772 48.172365 42.979405                                                 
C 39.999362 45.745667 49.134155                                                 
C 45.447494 32.078346 30.785842                                                 
C 45.512380 31.997204 36.856776                                                 
C 46.863874 34.394641 30.732382                                                 
C 48.089190 31.995000 36.860045                                                 
H 49.141521 30.214106 36.890337                                                 
H 50.522366 32.643040 30.856640                                                 
C 45.480841 36.736154 30.679517                                                 
C 45.458765 36.656216 36.819765                                                 
C 46.831508 39.063694 30.667877                                                 
C 48.133298 36.652824 36.823201                                                 
C 49.490724 34.432448 30.769351                                                 
C 49.506787 34.308427 36.840125                                                 
C 50.885941 36.721047 30.727043                                                 
C 52.138138 34.342005 36.845546                                                 
C 45.336569 31.885411 42.854721                                                 
C 45.436723 31.772146 48.948618                                                 
C 46.760065 34.199182 42.905313                                                 
C 48.015247 31.771817 48.965304                                                 
H 49.065198 29.991077 48.893020                                                 
H 50.412795 32.442010 42.877807                                                 
C 45.387725 36.543203 42.935885                                                 
C 45.383719 36.432502 49.078785                                                 
C 46.741503 38.866514 42.960704                                                 
C 48.060987 36.431404 49.087251                                                 
C 49.384948 34.236321 42.908359                                                 
C 49.435322 34.086306 49.033660                                                 
C 50.784974 36.523942 42.935389                                                 
C 52.068456 34.122389 49.022465                                                 
H 53.174165 32.548930 36.869677                                                 
H 53.103777 32.330516 48.959079                                                 
C 57.598295 39.115046 30.780900                                                 
C 57.532280 38.944487 36.845083                                                 
C 58.942890 41.374257 30.751172                                                 
C 60.244699 39.016853 36.871025                                                 
C 57.496183 38.917656 42.923652                                                 
C 57.471340 38.726746 49.041671                                                 
C 58.841830 41.171608 42.932015                                                 
C 60.186070 38.799513 48.979309                                                 
C 45.471633 46.046198 30.665560                                                 
C 45.443069 45.963670 36.818309                                                 
C 46.819654 48.373674 30.665721                                                 
C 48.128031 45.962128 36.817450                                                 
C 49.512111 43.725045 30.664053                                                 
C 49.471259 43.635372 36.814487                                                 
C 50.858708 46.051299 30.662145                                                 
C 52.156526 43.634356 36.815248                                                 
C 45.401656 45.848191 42.977547                                                 
C 45.374069 45.746770 49.134387                                                 
C 46.745183 48.172993 42.975281                                                 
C 48.061516 45.746243 49.136606                                                 
C 49.428782 43.525689 42.977875                                                 
C 49.405166 43.418256 49.135024                                                 
C 50.773968 45.848361 42.978814                                                 
C 52.093385 43.418518 49.133667                                                 
C 53.555138 41.401569 30.685512                                                 
C 53.501603 41.300440 36.818696                                                 
C 54.901769 43.724572 30.675499                                                 
C 56.187769 41.305611 36.827947                                                 
C 53.460493 41.201846 42.962707                                                 
C 53.438927 41.083655 49.117117                                                 
C 54.808270 43.522029 42.968354                                                 
C 56.127769 41.089619 49.094747                                                 
H 57.224862 34.888818 36.871191                                                 
H 58.637966 37.327669 30.868781                                                 
H 57.158443 34.671460 48.962679                                                 
H 58.533621 37.129202 42.896020                                                 
C 45.474843 41.392011 30.659388                                                 
C 45.448789 41.310883 36.811990                                                 
C 46.822180 43.720323 30.662762                                                 
C 48.130516 41.308690 36.813386                                                 
C 49.517860 39.069960 30.681026                                                 
C 49.479466 38.976864 36.817111                                                 
C 50.864822 41.393246 30.669746                                                 
C 52.162419 38.975948 36.820958                                                 
C 45.395971 41.196591 42.973145                                                 
C 45.377128 41.090522 49.128397                                                 
C 46.744027 43.522525 42.978232                                                 
C 48.061191 41.090167 49.131628                                                 
C 49.425282 38.872932 42.959391                                                 
C 49.410141 38.757104 49.114187                                                 
C 50.775087 41.193645 42.969794                                                 
C 52.095649 38.758259 49.105287                                                 
C 53.541768 36.772033 30.769283                                                 
C 53.519684 36.626601 36.834849                                                 
C 54.915835 39.048037 30.733166                                                 
C 56.189184 36.681891 36.847277                                                 
C 53.440133 36.577575 42.926547                                                 
C 53.452567 36.407921 49.057452                                                 
C 54.814681 38.849809 42.940524                                                 
C 56.124546 36.464342 49.026095                                                 
H 61.260355 37.215017 36.899074                                                 
H 62.677446 39.653644 30.905060                                                 
H 61.200783 36.998643 48.905454                                                 
H 62.573917 39.448025 42.872674                                                 
H 28.277824 61.668188 36.925434                                                 
H 28.191510 61.460901 48.894991                                                 
C 29.394451 60.095367 30.829513                                                 
C 29.293543 59.868688 36.892796                                                 
C 30.686127 62.326195 30.817899                                                 
C 32.009455 59.943285 36.866253                                                 
C 33.397760 57.710096 30.707898                                                 
C 33.352581 57.582309 36.841197                                                 
C 34.738745 60.027932 30.702316                                                 
C 36.041789 57.591606 36.828788                                                 
H 29.673211 64.127036 30.894040                                                 
H 32.318720 63.986548 36.905099                                                 
C 33.398540 62.392332 30.753203                                                 
C 33.355085 62.197091 36.875224                                                 
C 34.747545 64.655092 30.769205                                                 
C 36.035965 62.263811 36.857102                                                 
C 29.316339 59.865543 42.920876                                                 
C 29.210275 59.664165 48.982113                                                 
C 30.602200 62.098321 42.925102                                                 
C 31.927488 59.741754 49.046421                                                 
C 33.324348 57.490046 42.964276                                                 
C 33.272898 57.379124 49.098723                                                 
C 34.658285 59.808520 42.966263                                                 
C 35.963676 57.388995 49.122928                                                 
H 29.586666 63.900535 42.899470                                                 
H 32.232990 63.787609 48.931470                                                 
C 33.314995 62.170415 42.949615                                                 
C 33.270998 62.000114 49.016668                                                 
C 34.659025 64.432607 42.945839                                                 
C 35.953218 62.067401 49.064057                                                 
C 41.454921 57.686716 30.665809                                                 
C 41.419124 57.587424 36.819475                                                 
C 42.803671 60.016072 30.668864                                                 
C 44.102867 57.590664 36.819169                                                 
C 41.373915 57.476717 42.983093                                                 
C 41.343736 57.383469 49.134404                                                 
C 42.715413 59.802795 42.983722                                                 
C 44.030175 57.384297 49.138075                                                 
C 37.425925 60.028274 30.680757                                                 
C 37.389318 59.911567 36.834004                                                 
C 38.771624 62.352805 30.691516                                                 
C 40.073701 59.919654 36.826633                                                 
C 37.344009 59.812794 42.976125                                                 
C 37.309069 59.712263 49.111842                                                 
C 38.684330 62.136828 42.973015                                                 
C 39.995900 59.718645 49.127014                                                 
C 41.446374 53.027497 30.669700                                                 
C 41.416031 52.938777 36.820155                                                 
C 42.794442 55.356165 30.664945                                                 
C 44.100937 52.939517 36.821803                                                 
C 41.375825 52.824023 42.978310                                                 
C 41.343547 52.729088 49.134513                                                 
C 42.716884 55.149991 42.980003                                                 
C 44.030882 52.728907 49.133417                                                 
C 37.421927 55.363647 30.672373                                                 
C 37.385932 55.260693 36.820539                                                 
C 38.767225 57.688623 30.667827                                                 
C 40.074089 55.264475 36.818610                                                 
C 37.349940 55.155226 42.979813                                                 
C 37.309736 55.054973 49.134704                                                 
C 38.688374 57.478485 42.980995                                                 
C 39.999746 55.057775 49.136576                                                 
C 41.436878 67.027395 30.761009                                                 
C 41.462528 66.878188 36.889600                                                 
C 42.857717 69.341813 30.830418                                                 
C 44.087442 66.915787 36.891219                                                 
C 41.342080 66.803460 42.954762                                                 
C 41.383691 66.682608 49.029623                                                 
C 42.761339 69.116268 42.936621                                                 
C 44.011593 66.716275 49.067652                                                 
H 37.770202 68.787571 30.837434                                                 
H 40.432835 68.671363 36.923494                                                 
H 37.674823 68.564071 42.926409                                                 
H 40.356844 68.476585 48.945924                                                 
C 41.458293 62.352168 30.684263                                                 
C 41.422962 62.240715 36.837132                                                 
C 42.809544 64.679258 30.709088                                                 
C 44.105836 62.247360 36.835967                                                 
C 41.367149 62.134969 42.978596                                                 
C 41.344878 62.041830 49.115692                                                 
C 42.714264 64.458302 42.972029                                                 
C 44.029976 62.044880 49.131196                                                 
H 33.717203 66.451414 30.834794                                                 
H 33.625109 66.227201 42.925015                                                 
C 37.417846 64.706945 30.737627                                                 
C 37.409149 64.536239 36.872251                                                 
C 38.804539 66.993685 30.772387                                                 
C 40.064154 64.590046 36.861683                                                 
C 37.328662 64.486737 42.958802                                                 
C 37.326410 64.342483 49.027995                                                 
C 38.710847 66.771028 42.947410                                                 
C 39.983916 64.394177 49.069046                                                 
C 61.660627 41.451201 30.816038                                                 
C 61.528963 41.250298 36.876848                                                 
C 62.949710 43.683967 30.805553                                                 
H 63.594582 41.268948 36.909540                                                 
C 61.655209 46.071002 30.744438                                                 
C 61.516472 45.932627 36.864019                                                 
C 62.940970 48.369236 30.759068                                                 
H 63.583923 45.928219 36.893039                                                 
H 65.016833 43.703670 30.879391                                                 
C 61.558394 41.247420 42.905030                                                 
C 61.475155 41.032187 48.969673                                                 
C 62.850664 43.476570 42.907551                                                 
H 63.540455 41.047953 48.881638                                                 
C 61.557796 45.862685 42.935879                                                 
C 61.468302 45.717182 49.007722                                                 
C 62.845411 48.157709 42.929513                                                 
H 63.535389 45.711742 48.921349                                                 
H 64.919481 43.496500 42.878034                                                 
C 61.654504 55.350517 30.754368                                                 
C 61.516708 55.295706 36.882520                                                 
C 62.948806 57.738057 30.822411                                                 
H 63.584087 55.300452 36.914604                                                 
H 65.010870 53.052508 30.825339                                                 
C 61.557698 55.131986 42.942293                                                 
C 61.468454 55.083756 49.024284                                                 
C 62.850964 57.517826 42.921762                                                 
H 63.535544 55.089337 48.939393                                                 
H 64.916600 52.837447 42.905983                                                 
C 61.653446 50.710717 30.729757                                                 
C 61.515968 50.614203 36.863251                                                 
C 62.940661 53.053064 30.763286                                                 
H 65.011080 48.369556 30.821503                                                 
C 61.558342 50.497371 42.945830                                                 
C 61.469919 50.400477 49.021449                                                 
C 62.845301 52.837120 42.931447                                                 
H 64.916750 48.157855 42.904230                                                 
H 41.805737 71.121171 30.905281                                                 
H 44.462034 71.009801 36.979076                                                 
H 41.709517 70.897357 42.909282                                                 
H 44.391664 70.810744 48.931032                                                 
C 45.435486 69.340042 30.848128                                                 
C 45.510940 69.229742 36.941128                                                 
H 46.481726 71.119896 30.943137                                                 
C 48.087540 69.232934 36.956259                                                 
C 49.487472 66.990612 30.817496                                                 
C 49.506470 66.920053 36.918953                                                 
H 50.514349 68.783939 30.910356                                                 
C 52.137739 66.887318 36.940767                                                 
H 49.138958 71.013722 37.005944                                                 
C 45.338010 69.112201 42.941934                                                 
C 45.437676 69.030128 49.016930                                                 
H 46.387345 70.892191 42.918856                                                 
C 48.015802 69.029842 49.038251                                                 
C 49.386509 66.759390 42.965846                                                 
C 49.435823 66.715385 49.094713                                                 
H 50.415702 68.552829 42.947728                                                 
C 52.068737 66.679945 49.090159                                                 
H 49.066485 70.810078 48.975499                                                 
H 57.225762 66.339362 36.987530                                                 
H 57.160170 66.129488 49.038486                                                 
H 53.172089 68.681045 36.987597                                                 
H 53.102483 68.473234 49.039206                                                 
C 57.598362 62.306222 30.815781                                                 
C 57.533043 62.284080 36.917929                                                 
H 58.637074 64.092826 30.908296                                                 
C 60.245487 62.211144 36.954006                                                 
C 57.497001 62.076369 42.962653                                                 
C 57.471925 62.074442 49.093537                                                 
H 58.535300 63.864136 42.943297                                                 
C 60.186667 62.001313 49.035776                                                 
C 53.543470 64.650099 30.809662                                                 
C 53.520351 64.602772 36.912274                                                 
C 56.189853 64.546900 36.940753                                                 
C 53.441280 64.417599 42.973143                                                 
C 53.453276 64.394190 49.113585                                                 
C 56.125157 64.337009 49.089703                                                 
C 61.659078 59.970287 30.842039                                                 
C 61.529621 59.977658 36.936794                                                 
H 62.677008 61.767268 30.935544                                                 
H 63.595130 59.958099 36.973467                                                 
H 65.016268 57.717967 30.894016                                                 
H 61.261205 64.012487 37.003841                                                 
C 61.558939 59.746935 42.931218                                                 
C 61.475563 59.768806 49.012810                                                 
H 62.574425 61.546271 42.907002                                                 
H 63.540832 59.753139 48.925634                                                 
H 64.919672 57.497294 42.889813                                                 
H 61.201997 63.801984 48.973084                                                 
H 63.536629 50.400586 48.940307                                                 
H 36.293078 34.671160 48.902839                                                 
H 36.292780 66.132034 48.948080                                                 
H 27.259790 50.501006 42.910122                                                 
H 54.473482 66.208798 42.956396                                                 
H 63.582860 50.614712 36.892202                                                 
H 54.472979 34.787013 42.899750                                                 
H 36.377029 34.896147 36.852488                                                 
H 36.375515 66.326318 36.902935                                                 
H 54.575158 66.440584 30.897530                                                 
H 27.300570 50.750861 30.848360                                                 
H 54.576875 34.983059 30.852827                                                 
Li 31.661229 41.207617 27.383177                                                
Li 29.245320 49.242120 33.744600                                                
%ENDBLOCK POSITIONS_ABS                                                         

--------------------------------------------------------------------------------
-------------------------------- END INPUT FILE --------------------------------
--------------------------------------------------------------------------------


 
<<<<<<<<<<<<<<<<<<<<<<<<<<<<<<<<< Full system >>>>>>>>>>>>>>>>>>>>>>>>>>>>>>>>>>
<<<<<<<<<<<<<<<<<<<<<<<<<<< PAW Dataset information >>>>>>>>>>>>>>>>>>>>>>>>>>>
File: ~/pp/paw/c_pbe_abinit.paw; rc = 1.25 bohr; shape type =  3; rshape = 1.25 bohr;
  Atomic number:  6;  ionic charge:  4.000000
    Partial Wave 1: l = 0
    Partial Wave 2: l = 0
    Partial Wave 3: l = 1
    Partial Wave 4: l = 1
  Core charge supplied for Nonlinear Core Corrections
File: ~/pp/paw/h_pbe_abinit.paw; rc = 0.90 bohr; shape type =  3; rshape = 0.90 bohr;
  Atomic number:  1;  ionic charge:  1.000000
    Partial Wave 1: l = 0
    Partial Wave 2: l = 0
File: ~/pp/paw/li_pbe_abinit.paw; rc = 1.42 bohr; shape type =  3; rshape = 1.42 bohr;
  Atomic number:  3;  ionic charge:  3.000000
    Partial Wave 1: l = 0
    Partial Wave 2: l = 0
    Partial Wave 3: l = 0
    Partial Wave 4: l = 1
    Partial Wave 5: l = 1
<<<<<<<<<<<<<<<<<<<<<<<<<<<<<<<<<<<<<<< >>>>>>>>>>>>>>>>>>>>>>>>>>>>>>>>>>>>>>>

-------------------------- Atom counting information ---------------------------
Symbol    Natoms    Nngwfs    Nprojs
  C        484      1936      3872
  H        108       108       216
  Li         2        10        18
.......   ......    ......    ......
Totals:    594      2054      4106
--------------------------------------------------------------------------------

=============================== PSINC grid sizes ===============================
                      Simulation cell:  189 x 189 x 189
                              FFT-box:  117 x 117 x 117
                                  PPD:    7 x   7 x   1
Grid space d1=  0.499927596032a0 (KE cutoff=  30.39413Eh = 827.06648eV)
Grid space d2=  0.499927596032a0 (KE cutoff=  30.39413Eh = 827.06648eV)
Grid space d3=  0.499927596032a0 (KE cutoff=  30.39413Eh = 827.06648eV)
================================================================================
  
WARNING in cell_grid_distribute:
Average of less than one 23-slab per node, so workload cannot be
equally balanced between nodes.

********************* Fourier parallelisation information **********************
       Coarse grid (whole simulation cell) dimensions:    189   189   189
          Real-space ('12') slabs/node (min max mean):      1     2     1
         Recip-space ('23') slabs/node (min max mean):      0     1     0
********************************************************************************

********************* Fourier parallelisation information **********************
       Double grid (whole simulation cell) dimensions:    378   378   378
          Real-space ('12') slabs/node (min max mean):      3     4     3
         Recip-space ('23') slabs/node (min max mean):      1     2     1
********************************************************************************

Atom SCF Calculation for C  : Z (AE atom) =   6 : Z (PS atom) =   4
Config String: 2s2 2p2
Orbitals (num,occ):  2     2.00 2.00
Orbitals   (num,l):  2        0    1
Real-space Grid (nr,dr,rmax): 1377    0.0065406977    9.0000000000
Spherical Bessel Basis (nsws,lmax,cutoff):   37    2  183.0099912382
Confining potential (l,width,scale):  0    3.0000000000  100.0000000000
Confining potential (l,width,scale):  1    3.0000000000  100.0000000000
  1         -5.4350126632   -1.2715272878    4.5135247139   -1.5681949477
  2         -5.3876836850   -1.3562195125    4.4235426751   -1.5380057521
  3         -5.3928844498   -1.3758175853    4.4021699684   -1.5318377811
  4         -5.3988962903   -1.3800385428    4.3975423583   -1.5307324410
  5         -5.4018428823   -1.3823489590    4.3950111904   -1.5301555648
  6         -5.4033571720   -1.3835805046    4.3936635548   -1.5298576834
  7         -5.4041480647   -1.3842324820    4.3929512000   -1.5297032953
  8         -5.4045641108   -1.3845769138    4.3925755232   -1.5296229456
  9         -5.4047838258   -1.3847587737    4.3923775340   -1.5295810042
 10         -5.4049001347   -1.3848548089    4.3922731819   -1.5295590658
 11         -5.4049618018   -1.3849055476    4.3922181562   -1.5295475724
 12         -5.4049945351   -1.3849323732    4.3921891206   -1.5295415432
 13         -5.4050119258   -1.3849465673    4.3921737867   -1.5295383767
 14         -5.4050211723   -1.3849540841    4.3921656816   -1.5295367119
 15         -5.4050260920   -1.3849580684    4.3921613935   -1.5295358358
 16         -5.4050287113   -1.3849601822    4.3921591228   -1.5295353742
 17         -5.4050301068   -1.3849613045    4.3921579192   -1.5295351307
 18         -5.4050308507   -1.3849619010    4.3921572806   -1.5295350022
 19         -5.4050312476   -1.3849622183    4.3921569415   -1.5295349343
 20         -5.4050314594   -1.3849623873    4.3921567612   -1.5295348984
 21         -5.4050315725   -1.3849624773    4.3921566653   -1.5295348794
 22         -5.4050316330   -1.3849625253    4.3921566143   -1.5295348693
Atom SCF converged after  22 iterations to a total energy of     -5.40503163

Atom SCF Calculation for H  : Z (AE atom) =   1 : Z (PS atom) =   1
Config String: 1s1
Orbitals (num,occ):  1     1.00
Orbitals   (num,l):  1        0
Real-space Grid (nr,dr,rmax): 1377    0.0065406977    9.0000000000
Spherical Bessel Basis (nsws,lmax,cutoff):   37    1  183.0099912382
Confining potential (l,width,scale):  0    3.0000000000  100.0000000000
  1         -0.3605254152   -0.2399954029    0.2820952946   -0.2424203210
  2         -0.4156854077   -0.2398249290    0.2871789324   -0.2464796203
  3         -0.4412552402   -0.2379720642    0.2899127187   -0.2499011370
  4         -0.4517265951   -0.2371980236    0.2908966173   -0.2514141636
  5         -0.4557775773   -0.2369735141    0.2911607883   -0.2519713623
  6         -0.4573363459   -0.2369240355    0.2912108681   -0.2521663171
  7         -0.4579443228   -0.2369187864    0.2912112833   -0.2522344454
  8         -0.4581858602   -0.2369215483    0.2912049187   -0.2522587615
  9         -0.4582834939   -0.2369242589    0.2912002081   -0.2522677042
 10         -0.4583235236   -0.2369258837    0.2911975892   -0.2522710965
 11         -0.4583401154   -0.2369267223    0.2911962825   -0.2522724192
 12         -0.4583470483   -0.2369271266    0.2911956643   -0.2522729467
 13         -0.4583499624   -0.2369273145    0.2911953803   -0.2522731607
 14         -0.4583511926   -0.2369274000    0.2911952521   -0.2522732486
 15         -0.4583517136   -0.2369274385    0.2911951948   -0.2522732850
 16         -0.4583519349   -0.2369274556    0.2911951693   -0.2522733002
 17         -0.4583520290   -0.2369274632    0.2911951581   -0.2522733066
Atom SCF converged after  17 iterations to a total energy of     -0.45835203

Atom SCF Calculation for Li : Z (AE atom) =   3 : Z (PS atom) =   3
Config String: 1s2 2s1 2p0
Orbitals (num,occ):  3     2.00 1.00 0.00
Orbitals   (num,l):  3        0    0    1
Real-space Grid (nr,dr,rmax): 1377    0.0065406977    9.0000000000
Spherical Bessel Basis (nsws,lmax,cutoff):   37    2  183.0099912382
Confining potential (l,width,scale):  0    3.0000000000  100.0000000000
Confining potential (l,width,scale):  1    3.0000000000  100.0000000000
  1         -6.0640888065   -4.6655401716    2.5388576516   -0.9989538799
  2         -6.9627542978   -4.0954079129    2.9808988108   -1.1965571426
  3         -7.2692687601   -3.8889996707    3.2029735703   -1.3193883705
  4         -7.3784440298   -3.8322099748    3.2868571989   -1.3711018151
  5         -7.4170278248   -3.8191968371    3.3144974220   -1.3911175539
  6         -7.4303549880   -3.8172386945    3.3228486489   -1.3986896266
  7         -7.4348052089   -3.8175483495    3.3251259310   -1.4015352495
  8         -7.4362242328   -3.8180607346    3.3256233205   -1.4026016384
  9         -7.4366459715   -3.8184145665    3.3256561549   -1.4029998726
 10         -7.4367560626   -3.8186169740    3.3256001574   -1.4031477379
 11         -7.4367765260   -3.8187239825    3.3255481763   -1.4032021548
 12         -7.4367751741   -3.8187782620    3.3255144587   -1.4032219192
 13         -7.4367707398   -3.8188051288    3.3254952336   -1.4032289600
 14         -7.4367680349   -3.8188156035    3.3254870176   -1.4032309087
 15         -7.4367661982   -3.8188217406    3.3254819951   -1.4032318132
 16         -7.4367650112   -3.8188253257    3.3254789583   -1.4032322224
 17         -7.4367642682   -3.8188274151    3.3254771375   -1.4032324006
 18         -7.4367638134   -3.8188286307    3.3254760529   -1.4032324736
 19         -7.4367635392   -3.8188293370    3.3254754103   -1.4032325004
 20         -7.4367633760   -3.8188297469    3.3254750310   -1.4032325080
 21         -7.4367632796   -3.8188299846    3.3254748079   -1.4032325082
Atom SCF converged after  21 iterations to a total energy of     -7.43676328

Determining parallel strategy ...
... using space-filling curve
... NGWF load balancing: max     20;  min     16;  average     17
... Projector load balancing: max     40;  min     32;  average     34
... done
Calculating Ewald energy ...
              Ewald: real-space energy =   35667.138811
        Ewald: reciprocal-space energy =   33617.268076
         Ewald: (sum_charge)**2 Energy =    2645.533895
         Ewald: (sum_charge**2) Energy =     241.492451
                          Ewald Energy =   66397.380542
======================= Empirical dispersion information =======================
Model : Grimme D2
Dispersion Correction Energy: -0.17858529E+01 Hartree
================================================================================
Basis initialisation ...... NGWF spheres initialised
... Projector spheres initialised
... NGWF tight boxes initialised
... Projector tight boxes initialised
... Tight-boxes gathered
... NGWF basis size (local,global):     285751  34277794
... PAW projector initialisation
... done

============================= Charge Augmentation ==============================
                           Aug box size:   13 x  13 x  13
================================================================================

========================== Sparse matrix information ===========================
                        Overlap matrix filling:  39.47%
                        Density kernel filling: 100.00%
              NGWF-Proj overlap matrix filling:  11.33%
                    Aug Overlap matrix filling:  43.84%
                    Hamiltonian matrix filling:  43.84%
                  NGWF diagonal matrix filling:   0.19%
                             KS matrix filling: 100.00% 
                           KSKS matrix filling: 100.00% 
================================================================================

Sparse matrix initialisation ... done
NGWF initialisation ...... done
============ Calculation of NGWF S^-1 using Hotelling algorithm ================ 
         Iteration  |  Frobenius norm and Maximum abs value    (of I-S*S_n^-1)   
               1       0.44931166E+02     0.99535632E+00
               2       0.44563383E+02     0.99074679E+00
               3       0.43887469E+02     0.98162664E+00
               4       0.42734456E+02     0.96375971E+00
               5       0.40990350E+02     0.92937432E+00
               6       0.38711843E+02     0.86519670E+00
               7       0.36014218E+02     0.77973595E+00
               8       0.32987480E+02     0.76369628E+00
               9       0.29939537E+02     0.74321915E+00
              10       0.27043295E+02     0.72627864E+00
              11       0.23833549E+02     0.71490090E+00
              12       0.19648405E+02     0.69537013E+00
              13       0.14161604E+02     0.66088516E+00
              14       0.80203333E+01     0.60113822E+00
              15       0.30487528E+01     0.50174582E+00
              16       0.71960105E+00     0.35246323E+00
              17       0.24842046E+00     0.17493730E+00
              18       0.61034791E-01     0.43204774E-01
              19       0.37251239E-02     0.26368936E-02
              20       0.13876548E-04     0.98227538E-05
              21       0.19255759E-09     0.13630697E-09
              22       0.36586869E-13     0.31086245E-14
================================================================================
Calculating core density ...
================================= Core Density =================================
               Core den box size:   21 x  21 x  21
================================================================================
 ... done
Up spin density kernel initialisation ...... done

Writing density kernel to file "2/592nano.dkn" ... done

>>> Optimising kernel for current NGWFs:

--------------------------- Ensemble-DFT optimisation --------------------------
Running ScaLAPACK on  120 processor(s).

--------------------------------------------------------------------------------
  Iter                              Commutator    Free_energy(A=E-TS)     DeltaA
#    0                          0.000689757994   -2829.23805924087173  -2.83E+03

Step                       =       0.381966011250
Energy                     =   -2829.230351622294
Entropy (-TS)              =      -0.007707618764
Free energy (A=E-TS)       =   -2829.238059240872
Est. 0K Energy 0.5*(E+A)   =   -2829.234205431583
Residual Non-orthogonality =       0.000000000000
Residual N_electrons       =       0.000000000186

Spin          Integrated_Ne            Fermi_level     Delta_Fermi_level
   1      2050.000000000709        -0.262010563437             -2.62E-01

                           Spin 1          
     Orb      H-eigenvalues     Occupancies
       1 |    -1.9132858341    1.0000000000 | 
                          ------
    1021 |    -0.2904460805    0.9998740156 | 
    1022 |    -0.2903306913    0.9998693411 | 
    1023 |    -0.2892336706    0.9998152602 | 
    1024 |    -0.2803258802    0.9969315815 | 
    1025 |    -0.2670193580    0.8294383947 | 
                 - Gap at zero temperature -
    1026 |    -0.2542401070    0.0791672162 | 
    1027 |    -0.2518982336    0.0394216139 | 
    1028 |    -0.2512034699    0.0319036757 | 
    1029 |    -0.2476886911    0.0107452320 | 
    1030 |    -0.2454698700    0.0053614865 | 
                          ------
    2054 |     0.5669800222    0.0000000000 | 

                       |  Abs_value |  Threshold | Converged
     Delta_Free_energy |   2.83E+03 |   1.00E-06 |        No
     Delta_Energy      |   2.83E+03 |   1.00E-04 |        No
     Delta_Entropy     |   7.71E-03 |   1.00E-04 |        No
     Commutator        |   6.90E-04 |   1.00E-05 |        No
     Delta_Fermi_level |   2.62E-01 |   1.00E-03 |        No

  Line search of the free energy minimum:
  Step_type        Step             Free_energy   Predicted_free_energy
.   Initial    0.000000    -2829.23805924087173
.    Trial1    0.381966    -2829.26793866269600
.    Trial2    0.618034    -2827.80934960078366
. Quadratic    0.194846    -2829.49324990995137    -2829.62241394985904

--------------------------------------------------------------------------------
  Iter                              Commutator    Free_energy(A=E-TS)     DeltaA
#    1                          0.000439694994   -2829.49324990995137  -2.55E-01

Step                       =       0.194846409237
Energy                     =   -2829.484035327332
Entropy (-TS)              =      -0.009214582420
Free energy (A=E-TS)       =   -2829.493249909951
Est. 0K Energy 0.5*(E+A)   =   -2829.488642618642
Residual Non-orthogonality =       0.000000000000
Residual N_electrons       =      -0.000000000199

Spin          Integrated_Ne            Fermi_level     Delta_Fermi_level
   1      2049.999999999204        -0.249762053067              1.22E-02

                           Spin 1          
     Orb      H-eigenvalues     Occupancies
       1 |    -1.9379882810    1.0000000000 | 
                          ------
    1021 |    -0.2742374953    0.9995601926 | 
    1022 |    -0.2740797648    0.9995377426 | 
    1023 |    -0.2738776485    0.9995072930 | 
    1024 |    -0.2651588737    0.9923238517 | 
    1025 |    -0.2534380859    0.7614779437 | 
                 - Gap at zero temperature -
    1026 |    -0.2443660269    0.1539526313 | 
    1027 |    -0.2411647410    0.0621047068 | 
    1028 |    -0.2369450803    0.0171698721 | 
    1029 |    -0.2340587017    0.0069729025 | 
    1030 |    -0.2319442482    0.0035885287 | 
                          ------
    2054 |     0.5811746292    0.0000000000 | 

                       |  Abs_value |  Threshold | Converged
     Delta_Free_energy |   2.55E-01 |   1.00E-06 |        No
     Delta_Energy      |   2.54E-01 |   1.00E-04 |        No
     Delta_Entropy     |   1.51E-03 |   1.00E-04 |        No
     Commutator        |   4.40E-04 |   1.00E-05 |        No
     Delta_Fermi_level |   1.22E-02 |   1.00E-03 |        No

  Line search of the free energy minimum:
  Step_type        Step             Free_energy   Predicted_free_energy
.   Initial    0.000000    -2829.49324990995137
.    Trial1    0.194846    -2829.57288216220331
.    Trial2    0.502388    -2829.15154122437298
. Quadratic    0.155139    -2829.58018439188936    -2829.57846435314332

--------------------------------------------------------------------------------
  Iter                              Commutator    Free_energy(A=E-TS)     DeltaA
#    2                          0.000300684367   -2829.58018439188936  -8.69E-02

Step                       =       0.155139351294
Energy                     =   -2829.571263464727
Entropy (-TS)              =      -0.008920927525
Free energy (A=E-TS)       =   -2829.580184391889
Est. 0K Energy 0.5*(E+A)   =   -2829.575723928308
Residual Non-orthogonality =       0.000000000000
Residual N_electrons       =       0.000000000363

Spin          Integrated_Ne            Fermi_level     Delta_Fermi_level
   1      2050.000000001511        -0.240540753742              9.22E-03

                           Spin 1          
     Orb      H-eigenvalues     Occupancies
       1 |    -1.9374089038    1.0000000000 | 
                          ------
    1021 |    -0.2670906184    0.9997715088 | 
    1022 |    -0.2668112086    0.9997504381 | 
    1023 |    -0.2665646374    0.9997302359 | 
    1024 |    -0.2574881899    0.9952817003 | 
    1025 |    -0.2444379807    0.7739317947 | 
                 - Gap at zero temperature -
    1026 |    -0.2349605781    0.1465300041 | 
    1027 |    -0.2303104361    0.0380347199 | 
    1028 |    -0.2289217939    0.0248683282 | 
    1029 |    -0.2258445818    0.0095588384 | 
    1030 |    -0.2239407247    0.0052624888 | 
                          ------
    2054 |     0.5905777836    0.0000000000 | 

                       |  Abs_value |  Threshold | Converged
     Delta_Free_energy |   8.69E-02 |   1.00E-06 |        No
     Delta_Energy      |   8.72E-02 |   1.00E-04 |        No
     Delta_Entropy     |   2.94E-04 |   1.00E-04 |        No
     Commutator        |   3.01E-04 |   1.00E-05 |        No
     Delta_Fermi_level |   9.22E-03 |   1.00E-03 |        No

  Line search of the free energy minimum:
  Step_type        Step             Free_energy   Predicted_free_energy
.   Initial    0.000000    -2829.58018439188936
.    Trial1    0.155139    -2829.62168249958404
.    Trial2    0.477847    -2829.40995200994485
. Quadratic    0.146766    -2829.62169136920284    -2829.62181800980079

--------------------------------------------------------------------------------
  Iter                              Commutator    Free_energy(A=E-TS)     DeltaA
#    3                          0.000219122894   -2829.62169136920284  -4.15E-02

Step                       =       0.146766180753
Energy                     =   -2829.612284405273
Entropy (-TS)              =      -0.009406964362
Free energy (A=E-TS)       =   -2829.621691369203
Est. 0K Energy 0.5*(E+A)   =   -2829.616987887238
Residual Non-orthogonality =       0.000000000000
Residual N_electrons       =       0.000000000432

Spin          Integrated_Ne            Fermi_level     Delta_Fermi_level
   1      2050.000000001824        -0.236883641575              3.66E-03

                           Spin 1          
     Orb      H-eigenvalues     Occupancies
       1 |    -1.9560466514    1.0000000000 | 
                          ------
    1021 |    -0.2616548769    0.9995993965 | 
    1022 |    -0.2616293880    0.9995961605 | 
    1023 |    -0.2613678951    0.9995614141 | 
    1024 |    -0.2525905238    0.9930348136 | 
    1025 |    -0.2402633245    0.7440677851 | 
[...]
 C    11 -- C   431       -0.10      5.37841
 C     5 -- C   375       -0.10      5.37847
 C   266 -- C   296       -0.10      5.37849
 C    86 -- C   120       -0.10      5.37850
 C   209 -- C   271       -0.10      5.37853
 C   360 -- C   386       -0.10      5.37856
 C   194 -- C   288       -0.10      5.37861
 C    61 -- C   387       -0.10      5.37862
 C   329 -- C   357       -0.10      5.37863
 C   119 -- C   125       -0.10      5.37865
 C   113 -- C   119       -0.10      5.37865
 C   442 -- C   456       -0.10      5.37867
 C   194 -- C   276       -0.10      5.37873
 C    42 -- C   124       -0.10      5.37883
 C   265 -- C   271       -0.10      5.37890
 C   115 -- C   117       -0.10      5.37893
 C   297 -- C   303       -0.10      5.37896
 C   432 -- C   478       -0.10      5.37901
 C    99 -- C   121       -0.10      5.37909
 C   381 -- C   387       -0.10      5.37912
 C    41 -- C   351       -0.10      5.37920
 C    73 -- C   433       -0.10      5.37924
 C   117 -- C   127       -0.10      5.37926
 C   264 -- C   298       -0.10      5.37926
 C     3 -- C   447       -0.10      5.37934
 C   357 -- C   367       -0.10      5.37950
 C     9 -- C    15       -0.10      5.37952
 C   214 -- C   276       -0.10      5.37957
 C     7 -- C   121       -0.10      5.37967
 C    97 -- C   123       -0.10      5.37990
 C   213 -- C   345       -0.10      5.38000
 C   107 -- C   109       -0.10      5.38001
 C   245 -- C   267       -0.10      5.38002
 C   436 -- C   482       -0.10      5.38002
 C   406 -- C   440       -0.10      5.38005
 C    46 -- C   128       -0.10      5.38005
 C   424 -- C   436       -0.10      5.38008
 C   222 -- C   300       -0.10      5.38008
 C   210 -- C   280       -0.10      5.38018
 C   272 -- C   294       -0.10      5.38024
 C   197 -- C   295       -0.10      5.38035
 C    46 -- C    64       -0.10      5.38048
 C   107 -- C   475       -0.10      5.38048
 C   323 -- C   385       -0.10      5.38054
 C   435 -- C   445       -0.10      5.38058
 C    86 -- C   482       -0.10      5.38058
 C   218 -- C   386       -0.10      5.38065
 C   182 -- C   220       -0.10      5.38075
 C   350 -- C   380       -0.10      5.38076
 C    59 -- C    97       -0.10      5.38076
 C    88 -- C   118       -0.10      5.38078
 C    68 -- C    98       -0.10      5.38078
 C   218 -- C   280       -0.10      5.38079
 C    34 -- C    52       -0.10      5.38092
 C   264 -- C   424       -0.10      5.38094
 C   111 -- C   121       -0.10      5.38094
 C    64 -- C   366       -0.10      5.38094
 C   358 -- C   388       -0.10      5.38100
 C   261 -- C   263       -0.10      5.38105
 C   409 -- C   455       -0.10      5.38107
 C   241 -- C   279       -0.10      5.38109
 C    83 -- C    85       -0.10      5.38120
 C    15 -- C    89       -0.10      5.38124
 C   268 -- C   286       -0.10      5.38126
 C    94 -- C   128       -0.10      5.38129
 C   466 -- C   476       -0.10      5.38133
 C   441 -- C   463       -0.10      5.38147
 C   343 -- C   365       -0.10      5.38151
 C    80 -- C   110       -0.10      5.38153
 C    71 -- C    93       -0.10      5.38154
 C   211 -- C   221       -0.10      5.38168
 C   114 -- C   446       -0.10      5.38170
 C    48 -- C    62       -0.10      5.38175
 C    33 -- C   363       -0.10      5.38179
 C   212 -- C   230       -0.10      5.38181
 C   470 -- C   480       -0.10      5.38183
 C    39 -- C    45       -0.10      5.38192
 C   226 -- C   382       -0.10      5.38193
 C   446 -- C   460       -0.10      5.38195
 C   210 -- C   296       -0.10      5.38195
 C    48 -- C   126       -0.10      5.38205
 C   420 -- C   444       -0.10      5.38206
 C    72 -- C   102       -0.10      5.38217
 C   198 -- C   224       -0.10      5.38219
 C    57 -- C   379       -0.10      5.38226
 C     1 -- C   277       -0.10      5.38226
 C     3 -- C   109       -0.10      5.38230
 C   226 -- C   304       -0.10      5.38245
 C    38 -- C    56       -0.10      5.38247
 C    13 -- C    43       -0.10      5.38256
 C    13 -- C   347       -0.10      5.38260
 C    67 -- C    89       -0.10      5.38266
 C   431 -- C   441       -0.10      5.38267
 C   216 -- C   234       -0.10      5.38275
 C    75 -- C    77       -0.10      5.38279
 C   243 -- C   347       -0.10      5.38284
 C   105 -- C   449       -0.10      5.38332
 C   109 -- C   123       -0.10      5.38335
 C   289 -- C   299       -0.10      5.38336
 C   105 -- C   111       -0.10      5.38353
 C    11 -- C    77       -0.10      5.38354
 C   227 -- C   237       -0.10      5.38374
 C   253 -- C   255       -0.10      5.38401
 C   269 -- C   431       -0.10      5.38411
 C     1 -- C     7       -0.10      5.38430
 C   457 -- C   475       -0.10      5.38431
 C    51 -- C    57       -0.10      5.38436
 C   257 -- C   267       -0.10      5.38457
 C     5 -- C    59       -0.10      5.38457
 C   213 -- C   219       -0.10      5.38458
 C   287 -- C   301       -0.10      5.38542
 C     9 -- C   245       -0.10      5.38547
 C   257 -- C   439       -0.10      5.38553
 C   481 -- C   489       -0.10      5.38569
 C   364 -- C   390       -0.10      5.38627
 C   233 -- C   239       -0.10      5.38636
 C    35 -- C    41       -0.10      5.38644
 C   316 -- C   390       -0.10      5.38646
 C   254 -- C   284       -0.09      5.38650
 C   193 -- C   267       -0.10      5.38662
 C    76 -- C   564       -0.10      5.38663
 C    92 -- C   564       -0.10      5.38668
 C   423 -- C   489       -0.10      5.38671
 C   103 -- C   525       -0.10      5.38698
 C   345 -- C   351       -0.10      5.38708
 C   416 -- C   476       -0.10      5.38708
 C    55 -- C   525       -0.10      5.38719
 C   201 -- C   239       -0.10      5.38782
 C   237 -- C   275       -0.10      5.38802
 C   339 -- C   361       -0.10      5.38822
 C   319 -- C   361       -0.10      5.38829
 C    36 -- C    98       -0.10      5.38853
 C   183 -- C   237       -0.09      5.38864
 C   205 -- C   263       -0.10      5.38867
 C   277 -- C   299       -0.10      5.38869
 C   186 -- C   212       -0.10      5.38875
 C   301 -- C   447       -0.10      5.38885
 C    34 -- C   100       -0.10      5.38891
 C   333 -- C   365       -0.10      5.38906
 C    87 -- C    93       -0.10      5.38909
 C   221 -- C   243       -0.10      5.38918
 C   440 -- C   488       -0.10      5.38922
 C    85 -- C    95       -0.10      5.38931
 C   385 -- C   395       -0.10      5.38948
 C   293 -- C   295       -0.10      5.38955
 C   349 -- C   363       -0.10      5.38967
 C   373 -- C   379       -0.10      5.38999
 C   220 -- C   238       -0.10      5.39059
 C   190 -- C   284       -0.08      5.39063
 C   275 -- C   375       -0.10      5.39092
 C   330 -- C   394       -0.10      5.39171
 C   477 -- C   485       -0.10      5.39184
 C   409 -- C   485       -0.10      5.39184
 C    79 -- C    89       -0.10      5.39185
 C   430 -- C   480       -0.10      5.39197
 C    84 -- C   567       -0.10      5.39197
 C    77 -- C    91       -0.10      5.39198
 C    51 -- C   521       -0.10      5.39201
 C    38 -- C   104       -0.10      5.39208
 C   262 -- C   292       -0.10      5.39219
 C   368 -- C   394       -0.10      5.39225
 C    40 -- C   102       -0.10      5.39226
 C   444 -- C   492       -0.10      5.39231
 C    99 -- C   521       -0.10      5.39231
 C   224 -- C   242       -0.10      5.39257
 C   202 -- C   216       -0.10      5.39269
 C    96 -- C   567       -0.10      5.39275
 C   191 -- C   221       -0.09      5.39293
 C   206 -- C   292       -0.10      5.39306
 C   181 -- C   287       -0.09      5.39326
 C   211 -- C   315       -0.10      5.39349
 C   289 -- C   455       -0.10      5.39463
 C    74 -- C   488       -0.09      5.39488
 C    66 -- C   100       -0.09      5.39576
 C   408 -- C   416       -0.09      5.39604
 C   238 -- C   314       -0.09      5.39636
 C    81 -- C    87       -0.09      5.39649
 C    36 -- C    50       -0.09      5.39650
 C   293 -- C   421       -0.09      5.39676
 C    53 -- C   395       -0.09      5.39687
 C   185 -- C   299       -0.09      5.39694
 C    69 -- C    95       -0.09      5.39706
 C   327 -- C   333       -0.09      5.39728
 C   205 -- C   207       -0.09      5.39812
 C   377 -- C   391       -0.09      5.39827
 C    49 -- C   391       -0.09      5.39918
 C   285 -- C   287       -0.09      5.39931
 C    73 -- C    79       -0.09      5.40047
 C    82 -- C   492       -0.09      5.40048
 C   422 -- C   430       -0.09      5.40049
 C   189 -- C   255       -0.09      5.40053
 C    40 -- C    54       -0.09      5.40065
 C    70 -- C   104       -0.09      5.40068
 C    65 -- C    91       -0.09      5.40085
 C   242 -- C   328       -0.09      5.40088
 C   285 -- C   407       -0.10      5.40142
 C   202 -- C   208       -0.09      5.40165
 C   186 -- C   192       -0.09      5.40175
 C   229 -- C   235       -0.09      5.40220
 C   313 -- C   319       -0.09      5.40533
 C   193 -- C   219       -0.09      5.40679
 C   185 -- C   235       -0.09      5.41690
 C   253 -- C   413       -0.09      5.41853
 C   230 -- C   318       -0.09      5.41906
 C   466 -- C   538       -0.09      5.41910
 C    68 -- C   556       -0.09      5.41916
 C    52 -- C   338       -0.09      5.41935
 C    83 -- C   467       -0.09      5.41939
 C   252 -- C   406       -0.09      5.41940
 C    71 -- C   516       -0.09      5.41977
 C   231 -- C   323       -0.09      5.41980
 C   261 -- C   427       -0.09      5.42043
 C   343 -- C   506       -0.09      5.42058
 C   197 -- C   199       -0.09      5.42209
 C   339 -- C   497       -0.09      5.42366
 C    75 -- C   463       -0.09      5.42381
 C   470 -- C   547       -0.09      5.42430
 C   234 -- C   332       -0.09      5.42448
 C   260 -- C   420       -0.09      5.42455
 C    67 -- C   511       -0.09      5.42459
 C    56 -- C   342       -0.09      5.42475
 C    72 -- C   560       -0.09      5.42485
 C   227 -- C   309       -0.09      5.42500
 C   198 -- C   204       -0.09      5.42576
 C   182 -- C   188       -0.09      5.42714
 C   189 -- C   191       -0.09      5.42797
 C   181 -- C   183       -0.07      5.51320
==================================================


=================== Orbital energy and occupancy information ===================

      Total number of orbitals:    2054
        Occupancy sum (kernel):    1025.000000000
   Occupancy sum (eigenvalues):    1025.000000000
                 HOMO-LUMO gap:       0.007774249 Eh
                 Mid-gap level:      -0.108558565 Eh

                        Orbital | Energy (Eh) | Occupancy
                            1    -1.920413477   1.0000000
                        .......   ...........   .........
                         1016    -0.148699487   0.9999959
                         1017    -0.145888906   0.9999901
                         1018    -0.142529338   0.9999718
                         1019    -0.141949976   0.9999662
                         1020    -0.141300101   0.9999586
                         1021    -0.137465353   0.9998608
                         1022    -0.131817391   0.9991776
                         1023    -0.131467874   0.9990815
                         1024    -0.127584918   0.9968640
                         1025    -0.112445689   0.7260710
                        ....... -- gap at 0K -- .........
                         1026    -0.104671440   0.1848233
                         1027    -0.100865929   0.0636359
                         1028    -0.095666649   0.0130404
                         1029    -0.093506295   0.0066541
                         1030    -0.092295913   0.0045557
                         1031    -0.091237149   0.0032676
                         1032    -0.088774752   0.0014964
                         1033    -0.085127475   0.0004737
                         1034    -0.084992390   0.0004549
                         1035    -0.084112989   0.0003455
                        .......   ...........   .........
                         2054     0.780509339   0.0000000

================================================================================

===================== Writing canonical molecular orbitals =====================
| Orbital  Energy (eV)  Norm     |
| HOMO     -3.05980289  1.000000 | Writing "2/592nano_HOMO.cube" ... done
Writing "2/592nano_HOMO.dx" ... done
| LUMO     -2.84825481  1.000000 | Writing "2/592nano_LUMO.cube" ... done
Writing "2/592nano_LUMO.dx" ... done
================================================================================
 
===================== Density of States (DOS) calculation ======================
Writing "2/592nano_DOS.txt" ...  done
================================================================================
 
Writing bands to file "2/592nano.val_bands" ... done
 
================ Projected Density of States (pDOS) calculation ================
 
Constructing AM resolved functions  ...... done
Writing NGWF plot files in formats: CUBE DX ...  done
 
Performing overlap integrals ...  done
 
Computing pDOS weights ...  done
 
All bands spilling parameter =   3.19 %
Occupancy-weighted spilling parameter =   1.00 %
 
 => Outputting data for OptaDOS <=
 
Writing pDOS weights to file "2/592nano.val_pdos_bin" ... done
 
Writing band gradients to file "2/592nano.val_dome_bin" ... done
 
Writing Castep output cell file to "2/592nano-out.cell" ... done
 
 => Computing Gaussian smeared pDOS <= 
Writing "2/592nano_PDOS.txt" ...  done
 
 => Computing Occupancy-weighted Gaussian smeared pDOS <= 
Writing "2/592nano_occ_PDOS.txt" ...  done
  => Band centres: 
 S band centre of group 1:  -13.859645 eV
 P band centre of group 1:   -7.485407 eV
  Band centres done. <=
  => Integrated number of electrons in each AM band: 
 S num electrons of group 1:  534.260603
 P num electrons of group 1: 1495.313282
  Integrated number of electrons done. <=
================================================================================

------------------------------ TIMING INFORMATION ------------------------------
AVERAGE TIME:    6956.424s on    120 node(s)                                    
TOTAL TIME:      6956.426s on    120 node(s)                                    
================= AVERAGE TIMINGS FROM ALL NODES (CUMULATIVE) ==================
|| TAG                                    #calls    cpu time   %total  Gflops ||
|| work_imbalance                       :     1        0.00s   0.000%  ------ ||
|| sparse_set_to_garbage                :   135        0.01s   0.000%  ------ ||
|| paw_sphere_density_on_grid           :     1        0.01s   0.000%  ------ ||
|| paw_tcore_density                    :     1        0.01s   0.000%  ------ ||
|| basis_extract_function_from_box      :   410        0.02s   0.000%  ------ ||
|| paw_dij_hartree                      :   627        0.02s   0.000%  ------ ||
|| ngwfs_initialise_from_radial         :     2        0.05s   0.001%  ------ ||
|| density_init_guess_real              :     1        0.13s   0.002%  ------ ||
|| ewald_calculate_energy               :     1        0.14s   0.002%  ------ ||
|| paw_tcore_hartree_on_grid            :     1        0.30s   0.004%  ------ ||
|| pseudo_make_structure_factor         :     1        0.45s   0.007%  ------ ||
|| paw_dataset_init                     :     3        0.47s   0.007%  ------ ||
|| sparse_init                          :     1        0.79s   0.011%  ------ ||
|| restart_kernel_write                 :    13        0.88s   0.013%  ------ ||
|| dense_normal_eigensolve              :     1        0.90s   0.013%  ------ ||
|| paw_species_calc_proj_prec_mat       :     1        1.89s   0.027%  ------ ||
|| sparse_embed_hotelling_invert_embed  :    23        6.04s   0.087%  ------ ||
|| ngwf_gradient_coeffs                 :    12        6.28s   0.090%  ------ ||
|| fourier_apply_box_pair               :   618        7.28s   0.105%  1.681k ||
|| sw_init                              :     1        7.53s   0.108%  ------ ||
|| augmentation_screen_dij              :   471        8.37s   0.120%  ------ ||
|| basis_copy_function_to_box           : 11297       12.72s   0.183%  ------ ||
|| paw_dij_xc                           :   627       17.78s   0.256%  ------ ||
|| hartree_on_grid                      :   466       20.73s   0.298%  ------ ||
|| projectors_init_fftbox_recip         :    73       23.14s   0.333%  ------ ||
|| function_ops_brappd_ketppd           :    48       31.07s   0.447%  ------ ||
|| integrals_kinetic                    :    23       36.83s   0.529%  ------ ||
|| eigenstates_pdos                     :     1       39.46s   0.567%  ------ ||
|| projectors_func_ovlp_box             :    24       39.56s   0.569%  ------ ||
|| augmentation_density_on_grid         :   466       41.79s   0.601%  ------ ||
|| fourier_apply_cell_backward          :  2327       42.01s   0.604% 192.791 ||
|| sparse_trace                         :  5822       42.20s   0.607%  ------ ||
|| fourier_apply_cell_forward           :  2326       46.76s   0.672% 173.129 ||
|| aug_nonlocal_mat                     :   615       52.44s   0.754%  ------ ||
|| hamiltonian_energy_components        :     3       55.29s   0.795%  ------ ||
|| basis_dot_function_with_box          : 2.543M      72.41s   1.041%  ------ ||
|| eigenstates_calculate                :     1       80.63s   1.159%  ------ ||
|| xc_energy_potential                  :   465       82.18s   1.181%  ------ ||
|| restart_ngwfs_tightbox_output        :    11      116.61s   1.676%  ------ ||
|| dense_eigensolve                     :   439      129.66s   1.864%  ------ ||
|| sparse_product                       :  5274      156.71s   2.253%  ------ ||
|| basis_add_function_to_box            : 7.133M     200.64s   2.884%  ------ ||
|| cell_grid_deposit_box_real           : 18695      219.57s   3.156%  ------ ||
|| integrals_locpot_mat_els_batch       :   316      255.92s   3.679%  ------ ||
|| cell_grid_extract_box_real           :  5767      285.86s   4.109%  ------ ||
|| projectors_gradient_batch            :    24      324.45s   4.664%  ------ ||
|| edft_diag_ngwf_ham                   :   438      370.70s   5.329%  ------ ||
|| density_fftbox_deposit_to_cell       :  9320      410.97s   5.908%  ------ ||
|| projectors_grad_precond_batch        :    24      472.77s   6.796%  ------ ||
|| density_batch_row_sums               :   932      635.05s   9.129%  ------ ||
|| edft_apply_smearing_operator         :   438      694.49s   9.983%  ------ ||
|| potential_apply_to_ngwf_batch        :   316      707.31s  10.168%  ------ ||
|| properties_calculate                 :     1      762.86s  10.966%  ------ ||
|| ngwf_gradient_build_batch            :    24      880.45s  12.657%  ------ ||
|| fourier_apply_box                    : 36101      933.65s  13.421%  2.467k ||
|| ngwf_gradient_batch                  :    24      955.39s  13.734%  ------ ||
|| integrals_locpot_dbl_grid            :   158      967.65s  13.910%  ------ ||
|| density_fftbox_interpolate_multiply  :  9320     1040.85s  14.962%  ------ ||
|| ngwf_gradient_lnv                    :    12     1259.64s  18.108%  ------ ||
|| density_batch_interp_deposit         :   932     1793.52s  25.782%  ------ ||
|| density_on_dbl_grid                  :   466     2507.82s  36.050%  ------ ||
|| hamiltonian_lhxc_calculate           :   461     2760.30s  39.680%  ------ ||
|| edft_calculate                       :    12     4462.93s  64.155%  ------ ||
|| ngwf_cg_optimise                     :     1     6177.98s  88.810%  ------ ||
|| total_time                           :     1     6956.42s 100.000%  ------ ||
================================================================================
Overhead of generating timer report: 
- 0 ms averaging over threads,
- 17 ms ensuring consistency across MPI ranks,
- 0 ms printing in order.

Job completed: 12-05-2020 00:38 (+0100)

