 +---------------------------------------------------------------+
 |                                                               |
 |        ####### #     # ####### ####### ####### ######         |
 |        #     # ##    # #          #    #       #     #        |
 |        #     # # #   # #          #    #       #     #        |
 |        #     # #  #  # #####      #    #####   ######         |
 |        #     # #   # # #          #    #       #              |
 |        #     # #    ## #          #    #       #              |
 |        ####### #     # #######    #    ####### #              |
 |                                                               |
 |        Linear-Scaling Ab Initio Total Energy Program          |
 |                                                               |
 |          Release for academic collaborators of ODG            |
 |                                             Version 5.3.2.12  |
 |                                                               |
 +---------------------------------------------------------------+
 |                                                               |
 |  Authors:                                                     |
 |  Jacek Dziedzic, Peter D. Haynes, Nicholas D. M. Hine,        |
 |  Arash. A. Mostofi, Mike C. Payne and Chris-Kriton Skylaris   |
 |                                                               |
 |  Contributors:                                                |
 |  J. Aarons, L. Andrinopoulos, P. W. Avraam, R. A. Bell,       |
 |  A. Bhandari, G. A. Bramley, R. J. Charlton, S. J. Clark,     |
 |  R. J. Clements, G. C. Constantinescu, F. Corsetti,           |
 |  N. Corsini, O. Dieguez, S. M. M. Dubois, K. K. B. Duff,      |
 |  J. M. Escartin, A. Greco, H. Helal, Q. O. Hill, L. P. Lee,   |
 |  J.-H. Li, E. B. Linscott, G. Moynihan, D. D. O`Regan,        |
 |  O. K. Okan, M. J. S. Phipps, C. J. Pickard,                  |
 |  J. C. A. Prentice, M. I. J. Probert, L. E. Ratcliff,         |
 |  M. Robinson, A. Ruiz Serrano, J. S. Spencer, E. W. Tait,     |
 |  G. Teobaldi, D. Turban, V. Vitale, K. A. Wilkinson,          |
 |  C. Weber, J. C. Womack, N. Yeung and T. J. Zuehlsdorff       |
 |                                                               |
 |                                   Copyright (c) 2004-2020     |
 |                                                               |
 |  Please cite:                                                 |
 |  "Introducing ONETEP: Linear-scaling density functional       |
 |   simulations on parallel computers".                         |
 |   C.-K. Skylaris, P. D. Haynes, A. A. Mostofi, M. C. Payne.   |
 |   J. Chem. Phys. 122 084119 (2005).                           |
 |                                                               |
 |          in all publications arising from your use of ONETEP. |
 |                                                               |
 +---------------------------------------------------------------+
 |                                                               |
 |   ONETEP is based on developments described in the following  |
 |   publications:                                               |
 |                                                               |
 |  "Nonorthogonal generalized Wannier function pseudopotential  |
 |   plane-wave method".                                         |
 |   C.-K. Skylaris, A. A. Mostofi, P. D. Haynes, O. Dieguez,    |
 |   M. C. Payne.                                                |
 |   Phys. Rev. B 66 035119 (2002).                              |
 |                                                               |
 |  "Preconditioned iterative minimization for linear-scaling    |
 |   electronic structure calculations".                         |
 |   A. A. Mostofi, P. D. Haynes, C.-K. Skylaris, M. C. Payne.   |
 |   J. Chem. Phys. 119(17), pp.8842-8848 (2003).                |
 |                                                               |
 |  "Total-energy calculations on a real space grid with         |
 |   localized functions and a plane-wave basis".                |
 |   A. A. Mostofi, C.-K. Skylaris, P. D. Haynes, M. C. Payne.   |
 |   Comput. Phys. Commun. 147, pp.788-802 (2002).               |
 |                                                               |
 |  "Accurate kinetic energy evaluation in electronic structure  |
 |   calculations with localized functions on real space grids"  |
 |   C.-K. Skylaris, A. A. Mostofi, P. D. Haynes, C. J. Pickard, |
 |   M. C. Payne.                                                |
 |   Comput. Phys. Commun. 140, pp.315-322 (2001).               |
 |                                                               |
 |  "Accurate ionic forces and geometry optimization in linear-  |
 |   scaling density-functional theory with local orbitals"      |
 |   N. D. M. Hine, M. Robinson, P. D. Haynes, C.-K. Skylaris,   |
 |   M. C. Payne, and A. A. Mostofi.                             |
 |   Phys. Rev. B 83 195102 (2011).                              |
 |                                                               |
 +---------------------------------------------------------------+

Job started: 10-05-2020 12:33 (+0100)
 
Reading parameters from file "0/592nano.dat" ...... done

If your calculation crashes here, before "Checking processes and threads..."
is displayed, then your stack size is insufficient.
If so, use "ulimit -s unlimited" at runtime.
You can disable this check with "check_stack_size F".

Checking processes and threads...
   Determining the default number of threads...
      No default threads set at compilation time: defaulting to 1.
      OpenMP library call suggests 4 threads.
      Hybrid MPI-OpenMP compilation detected.
      Number of MPI processes > 1.
      OMP_NUM_THREADS environment variable present and
      its value matches the one obtained from the OpenMP library call.
      Using this value as default.
      Default threads: 4
      Default applies to threads_max and threads_num_fftboxes.
      Settings in the input file override this default.
   ... done

   Running with 80 MPI processes.
   There are 10 MPI processes running on the same node as the root process.
   Each MPI process is using: 
               1 threads for simulation cell FFTs.
               1 threads for parallel FFT box operations.
               4 threads for loops over batched FFT box operations.
               4 threads in other parallel regions.
... done

Basic input checks...
Resetting ngwf_cg_rotate to TRUE for EDFT calculations
... done

Reading geometry and species blocks from file "0/592nano.dat" ...    
  Number of PPD points along a3 set to 1.  This is 
  the default value, it may have been provided also in the input file.
... done
 Writing xyz coordinates to file "0/592nano.xyz" ... done


--------------------------------------------------------------------------------
---------------------------------- INPUT FILE ----------------------------------
--------------------------------------------------------------------------------

task : singlepoint                                                              
do_properties : true                                                            
dx_format T                                                                     
edft T                                                                          
output_detail VERBOSE                                                           
write_xyz T                                                                     
dispersion 4                                                                    
xc_functional PBE                                                               
cutoff_energy 830 eV                                                            
paw T                                                                           
geom_disp_tol 0.015 bohr                                                        
geom_energy_tol 1.5E-6 hartree                                                  
geom_force_tol 0.003 "ha/bohr"                                                  
EDFT_MAXIT 30                                                                   
pdos_max_l = 2                                                                  
dos_smear  0.1 eV                                                               
popn_calculate T                                                                
PDOS_PSEUDOATOMIC T                                                             
PDOS_REDUCE_SWS F                                                               
PDOS_CONSTRUCT_BASIS F                                                          
PDOS_LOWDIN T                                                                   
PDOS_ORTH_ATOM_BLOCKS F                                                         
PDOS_LCAO_OPTIMIZE F                                                            
pdos_optados_output T                                                           
homo_plot 0                                                                     
lumo_plot 0                                                                     
homo_dens_plot -1                                                               
lumo_dens_plot -1                                                               
%BLOCK SPECIES                                                                  
C C 6 4 9.0                                                                     
H H 1 1 9.0                                                                     
%ENDBLOCK SPECIES                                                               
%BLOCK SPECIES_POT                                                              
C "~/pp/paw/c_pbe_abinit.paw"                                                   
H "~/pp/paw/h_pbe_abinit.paw"                                                   
%ENDBLOCK SPECIES_POT                                                           
%BLOCK SPECIES_ATOMIC_SET                                                       
C "SOLVE conf=2s2 2p2"                                                          
H "SOLVE conf=1s1"                                                              
%ENDBLOCK SPECIES_ATOMIC_SET                                                    
%BLOCK LATTICE_CART                                                             
94.486315650000      0.000000000000       0.000000000000                        
0.000000000000       94.486315650000      0.000000000000                        
0.000000000000       0.000000000000       94.486315650000                       
%ENDBLOCK LATTICE_CART                                                          
%BLOCK POSITIONS_ABS                                                            
C       45.496141   50.713584   30.747273                                       
C       45.446955   50.616292   36.861993                                       
C       46.840517   53.041597   30.720123                                       
C       48.134128   50.616249   36.855838                                       
C       49.528055   48.384496   30.687498                                       
C       49.477339   48.291927   36.844391                                       
C       50.869811   50.713618   30.670234                                       
C       52.165341   48.292443   36.828741                                       
C       45.497901   55.368451   30.684591                                       
C       45.445041   55.268673   36.845001                                       
C       46.843129   57.697128   30.643057                                       
C       48.131710   55.265224   36.840702                                       
C       49.527668   53.042565   30.684432                                       
C       49.477560   52.940429   36.845072                                       
C       50.871898   55.371908   30.642523                                       
C       52.165460   52.939704   36.831085                                       
C       45.405011   50.497529   42.936439                                       
C       45.372841   50.398996   49.052009                                       
C       46.748622   52.824140   42.941303                                       
C       48.061764   50.398650   49.075812                                       
C       49.433939   48.169234   42.954366                                       
C       49.405969   48.072692   49.112884                                       
C       50.774455   50.497204   42.959248                                       
C       52.095612   48.072441   49.155906                                       
C       45.407144   55.149676   42.952822                                       
C       45.370900   55.053846   49.109005                                       
C       46.751584   57.476866   42.970858                                       
C       48.059277   55.050644   49.125568                                       
C       49.434046   52.825385   42.952926                                       
C       49.405944   52.724363   49.110191                                       
C       50.777296   55.153400   42.970561                                       
C       52.095583   52.723219   49.155608                                       
C       57.596084   48.385616   30.636506                                       
C       57.538092   48.289185   36.829374                                       
C       58.936721   50.714188   30.660379                                       
C       60.252976   48.294505   36.860418                                       
C       57.494955   48.169472   42.979700                                       
C       57.473386   48.068130   49.146485                                       
C       58.834794   50.496340   42.972845                                       
C       60.190333   48.072527   49.055557                                       
C       53.557215   50.713524   30.629165                                       
C       53.507213   50.616025   36.825569                                       
C       54.900697   53.043620   30.619502                                       
C       56.202067   50.616136   36.825084                                       
C       53.459905   50.496822   42.977082                                       
C       53.438750   50.397705   49.165690                                       
C       54.802198   52.825408   42.983429                                       
C       56.135756   50.396982   49.170262                                       
C       57.598130   43.732686   30.674876                                       
C       57.533644   43.632753   36.827020                                       
C       58.935708   46.053114   30.675358                                       
C       60.251865   43.654199   36.862254                                       
C       57.497110   43.519868   42.964750                                       
C       57.469350   43.408476   49.119869                                       
C       58.833775   45.838166   42.966101                                       
C       60.188892   43.428122   49.030315                                       
C       53.561663   46.057685   30.620816                                       
C       53.505778   45.964078   36.817959                                       
C       54.901040   48.383698   30.618317                                       
C       56.198802   45.964286   36.819597                                       
C       53.464271   45.843473   42.978871                                       
C       53.437533   45.742504   49.177891                                       
C       54.801973   48.167936   42.981934                                       
C       56.133059   45.742127   49.164688                                       
C       57.597091   57.695058   30.687119                                       
C       57.533538   57.599967   36.852220                                       
C       58.938429   60.060096   30.783077                                       
C       60.251642   57.578960   36.892711                                       
C       57.498083   57.473389   42.978219                                       
C       57.468870   57.385625   49.139193                                       
C       58.839143   59.838184   42.949621                                       
C       60.188443   57.365784   49.053186                                       
C       45.492030   64.682453   30.690876                                       
C       45.450425   64.576658   36.855031                                       
C       46.868705   67.027109   30.786974                                       
C       48.126596   64.574428   36.866180                                       
C       49.529372   62.355990   30.665856                                       
C       49.475458   62.248905   36.844412                                       
C       50.891168   64.706290   30.764936                                       
C       52.160517   62.245661   36.861877                                       
C       45.400415   64.456194   42.982563                                       
C       45.376428   64.367896   49.140423                                       
C       46.777259   66.799933   42.955019                                       
C       48.054756   64.365472   49.148544                                       
C       49.435842   62.132021   42.986166                                       
C       49.404784   62.038701   49.181605                                       
C       50.797120   64.480827   42.964901                                       
C       52.091539   62.035250   49.166423                                       
C       53.562934   60.027389   30.664931                                       
C       53.505549   59.921853   36.843893                                       
C       54.916593   62.382231   30.764034                                       
C       56.193821   59.916584   36.864865                                       
C       53.466952   59.805158   42.985277                                       
C       53.437504   59.709917   49.181548                                       
C       54.819969   62.158910   42.963735                                       
C       56.127620   59.703608   49.148063                                       
C       57.595720   53.042267   30.639009                                       
C       57.538089   52.943165   36.834375                                       
C       58.934985   55.375224   30.682100                                       
C       60.252806   52.938457   36.866694                                       
C       57.495292   52.823483   42.981397                                       
C       57.472964   52.725745   49.150325                                       
C       58.834448   55.154629   42.971060                                       
C       60.189845   52.721211   49.060839                                       
C       45.496569   60.024365   30.624794                                       
C       45.446435   59.921758   36.826719                                       
C       46.844492   62.358257   30.643693                                       
C       48.128516   59.917539   36.827902                                       
C       49.529173   57.697664   30.634758                                       
C       49.473776   57.590439   36.828624                                       
C       50.877227   60.033267   30.638278                                       
C       52.161703   57.588731   36.827418                                       
C       45.405511   59.802170   42.984126                                       
C       45.372203   59.709558   49.181283                                       
C       46.752109   62.134129   42.989371                                       
C       48.056466   59.705854   49.187549                                       
C       49.435735   57.477528   42.977654                                       
C       49.402525   57.377259   49.172200                                       
C       50.782965   59.811236   42.987264                                       
C       52.092271   57.375425   49.187837                                       
C       53.561081   55.369425   30.623231                                       
C       53.505920   55.268059   36.825659                                       
C       54.907692   57.703993   30.641712                                       
C       56.198946   55.268187   36.830357                                       
C       53.464674   55.150251   42.982950                                       
C       53.437386   55.052818   49.181798                                       
C       54.810663   57.482583   42.987562                                       
C       56.132747   55.051895   49.172735                                       
H       27.324600   41.369847   30.944880                                       
H       28.277436   39.558848   36.932628                                       
H       27.240334   41.163383   42.782645                                       
H       28.189413   39.341087   48.807246                                       
H       41.820102   30.312879   30.914607                                       
C       42.863932   32.093664   30.815187                                       
H       44.451157   30.218387   36.922135                                       
H       41.734063   30.106423   42.742000                                       
C       42.776491   31.888568   42.817453                                       
H       44.382896   29.991025   48.800805                                       
H       29.657599   37.334859   30.916678                                       
C       30.679799   39.127946   30.817656                                       
H       32.316969   37.229322   36.897371                                       
H       33.711202   34.994014   30.844664                                       
C       34.743940   36.785881   30.752115                                       
H       29.574035   37.127167   42.741666                                       
C       30.597793   38.920176   42.818053                                       
H       32.234935   37.006446   48.846676                                       
H       33.626087   34.786948   42.753190                                       
C       34.660236   36.578713   42.832858                                       
H       37.768799   32.652147   30.844566                                       
C       38.803997   34.442428   30.751797                                       
H       40.415679   32.553034   36.893864                                       
H       37.681603   32.444560   42.754759                                       
C       38.717517   34.235527   42.833550                                       
H       40.339910   32.328606   48.843142                                       
H       46.481995   30.306607   30.938631                                       
H       46.396767   30.101916   42.778348                                       
H       25.948092   48.278183   36.934156                                       
C       28.018479   48.276251   36.883340                                       
H       25.865811   48.057554   48.890070                                       
C       27.933092   48.055973   48.994454                                       
H       25.948727   43.597660   36.953285                                       
H       27.328274   46.036795   30.921596                                       
C       28.014783   43.587061   36.899827                                       
H       25.867002   43.380185   48.823879                                       
H       27.243479   45.824315   42.843820                                       
C       27.930062   43.366815   48.930837                                       
H       25.949811   57.642499   36.955189                                       
H       27.325463   60.062142   30.984396                                       
C       28.015894   57.651392   36.907139                                       
H       25.865957   57.419851   48.830174                                       
H       27.240486   59.834119   42.848136                                       
C       27.928928   57.432736   48.940528                                       
H       25.948206   52.960312   36.926931                                       
H       27.327965   55.394787   30.937675                                       
C       28.018640   52.961826   36.880965                                       
H       25.865756   52.740481   48.888805                                       
H       27.243021   55.172728   42.866730                                       
C       27.932845   52.742876   48.995180                                       
C       29.388749   41.358394   30.831980                                       
C       29.300235   41.354680   36.889545                                       
C       30.678414   43.747970   30.747224                                       
C       32.013571   41.276451   36.847603                                       
C       33.394564   39.047742   30.728516                                       
C       33.352938   39.019733   36.854948                                       
C       34.738295   41.409326   30.651006                                       
C       36.031841   38.954618   36.833394                                       
C       29.393985   46.039252   30.802052                                       
C       29.302917   45.977642   36.863526                                       
C       30.678367   48.391945   30.739966                                       
C       32.018834   45.960050   36.827091                                       
C       33.397893   43.727585   30.660219                                       
C       33.354851   43.640901   36.819863                                       
C       34.734896   46.060942   30.626828                                       
C       36.042002   43.630910   36.810723                                       
C       29.307135   41.149377   42.839272                                       
C       29.214375   41.132648   48.922302                                       
C       30.596677   43.536841   42.904597                                       
C       31.928566   41.052996   49.018490                                       
C       33.312095   38.839832   42.870500                                       
C       33.270110   38.794428   48.967687                                       
C       34.655260   41.199112   42.933962                                       
C       35.950438   38.730614   49.037913                                       
C       29.312293   45.825064   42.897608                                       
C       29.217614   45.756913   49.026327                                       
C       30.596383   48.176507   42.930584                                       
C       31.934152   45.738449   49.118546                                       
C       33.315456   43.515684   42.946465                                       
C       33.270808   43.417923   49.113809                                       
C       34.651260   45.846802   42.968613                                       
C       35.960498   43.408898   49.159127                                       
C       41.462633   39.074573   30.616730                                       
C       41.415413   38.980963   36.811722                                       
C       42.812063   41.406941   30.610785                                       
C       44.098909   38.978997   36.808856                                       
C       41.374164   38.865943   42.955182                                       
C       41.338995   38.756855   49.135903                                       
C       42.722604   41.196584   42.971600                                       
C       44.024071   38.754073   49.158083                                       
C       37.429015   41.403103   30.617231                                       
C       37.385223   41.307968   36.812608                                       
C       38.775434   43.737231   30.611174                                       
C       40.068850   41.301819   36.810780                                       
C       37.343837   41.192961   42.955416                                       
C       37.304847   41.085321   49.136381                                       
C       38.689040   43.525500   42.971839                                       
C       39.991012   41.079457   49.163059                                       
C       41.438139   34.404643   30.727276                                       
C       41.448608   34.345153   36.852144                                       
C       42.812735   36.748074   30.649642                                       
C       44.072857   34.313041   36.842713                                       
C       41.350226   34.198583   42.870645                                       
C       41.371715   34.118310   48.965043                                       
C       42.722952   36.540785   42.933332                                       
C       43.998895   34.084868   49.014367                                       
C       37.417549   36.728195   30.702889                                       
C       37.400285   36.681531   36.848482                                       
C       38.775063   39.077963   30.632094                                       
C       40.053486   36.632502   36.832325                                       
C       37.332238   36.520767   42.876388                                       
C       37.321626   36.457267   48.967234                                       
C       38.688630   38.868996   42.937353                                       
C       39.976689   36.407023   49.036999                                       
C       41.462749   48.388247   30.689156                                       
C       41.418544   48.288194   36.845674                                       
C       42.806944   50.713963   30.723879                                       
C       44.103556   48.289462   36.857069                                       
C       41.373996   48.173557   42.953606                                       
C       41.341548   48.069956   49.114844                                       
C       42.717573   50.497671   42.942600                                       
C       44.028495   48.070906   49.079544                                       
C       29.393665   55.392379   30.816432                                       
C       29.303235   55.260145   36.865501                                       
C       30.678545   57.683550   30.770936                                       
C       32.019308   55.276428   36.832499                                       
C       33.394802   53.044387   30.654088                                       
C       33.358200   52.945044   36.819206                                       
C       34.734949   55.370391   30.636117                                       
C       36.051167   52.946174   36.817202                                       
C       29.311926   55.171380   42.915290                                       
C       29.216617   55.042216   49.030984                                       
C       30.596633   57.459333   42.934833                                       
C       31.933309   55.059969   49.124113                                       
C       33.311481   52.824897   42.968853                                       
C       33.273274   52.727474   49.162787                                       
C       34.651306   55.149478   42.978745                                       
C       35.968632   52.728847   49.180463                                       
C       37.429635   50.715044   30.634441                                       
C       37.393319   50.617067   36.821905                                       
C       38.772807   53.040240   30.644694                                       
C       40.078472   50.616644   36.839556                                       
C       37.343406   50.498153   42.973163                                       
C       37.312688   50.399173   49.169731                                       
C       38.685774   52.821525   42.969721                                       
C       40.000007   50.399078   49.128418                                       
C       41.465883   43.735344   30.626426                                       
C       41.416328   43.635609   36.820679                                       
C       42.809431   46.061887   30.673145                                       
C       44.100123   43.636428   36.827479                                       
C       41.377477   43.523615   42.970627                                       
C       41.339584   43.414881   49.166063                                       
C       42.720125   45.848683   42.958172                                       
C       44.025696   43.415269   49.158028                                       
C       29.394783   50.715835   30.811690                                       
C       29.305385   50.618864   36.856602                                       
C       30.678194   53.039891   30.745693                                       
C       32.018269   50.618272   36.825735                                       
C       33.394959   48.387176   30.649611                                       
C       33.358022   48.290951   36.817271                                       
C       34.732480   50.715722   30.629926                                       
C       36.051019   48.288387   36.815410                                       
C       29.312533   50.498148   42.912151                                       
C       29.219014   50.399454   49.051917                                       
C       30.596102   52.819874   42.936767                                       
C       31.932573   50.399190   49.139484                                       
C       33.311607   48.171624   42.964169                                       
C       33.273686   48.071101   49.161061                                       
C       34.648161   50.498273   42.973523                                       
C       35.968933   48.069333   49.180195                                       
C       37.430569   46.059944   30.617644                                       
C       37.388199   45.963218   36.815632                                       
C       38.772760   48.389507   30.644139                                       
C       40.075287   45.960055   36.827920                                       
C       37.344690   45.846292   42.973460                                       
C       37.307816   45.743271   49.176948                                       
C       38.685729   48.174525   42.967754                                       
C       39.997183   45.740706   49.157498                                       
C       45.441670   32.089526   30.827550                                       
C       45.495758   32.001944   36.880115                                       
C       46.867981   34.400457   30.742966                                       
C       48.071966   32.004482   36.886068                                       
H       49.111594   30.219407   36.934486                                       
H       50.524655   32.641799   30.913750                                       
C       45.491467   36.745483   30.657792                                       
C       45.450056   36.656794   36.815723                                       
C       46.844701   39.069489   30.624811                                       
C       48.126393   36.658813   36.820515                                       
C       49.495339   34.432895   30.796332                                       
C       49.498112   34.315381   36.851703                                       
C       50.891719   36.721182   30.734959                                       
C       52.130874   34.353024   36.867430                                       
C       45.352599   31.884989   42.836328                                       
C       45.423857   31.773683   48.915441                                       
C       46.776583   34.194677   42.900959                                       
C       48.001519   31.777054   48.921519                                       
H       49.043169   29.995596   48.813358                                       
H       50.432281   32.432987   42.837622                                       
C       45.399665   36.538271   42.944367                                       
C       45.376077   36.429520   49.110651                                       
C       46.751378   38.860182   42.966537                                       
C       48.054270   36.431480   49.113702                                       
C       49.400889   34.225984   42.892128                                       
C       49.427480   34.087843   49.017801                                       
C       50.796178   36.513311   42.925150                                       
C       52.060984   34.125519   48.983943                                       
H       53.166780   32.561367   36.912332                                       
H       53.096366   32.336355   48.877165                                       
C       57.598278   39.108702   30.808781                                       
C       57.537079   38.955611   36.852795                                       
C       58.939878   41.367715   30.763009                                       
C       60.251482   39.035896   36.891613                                       
C       57.497814   38.899049   42.906864                                       
C       57.469682   38.728673   49.022319                                       
C       58.837659   41.155086   42.925945                                       
C       60.184204   38.807601   48.930211                                       
C       45.498219   46.058733   30.689321                                       
C       45.444719   45.963809   36.845513                                       
C       46.840841   48.385585   30.724090                                       
C       48.131450   45.967183   36.839152                                       
C       49.529889   43.729509   30.633449                                       
C       49.473530   43.641961   36.820278                                       
C       50.872494   46.055301   30.643862                                       
C       52.161609   43.643509   36.814425                                       
C       45.407105   45.845248   42.953869                                       
C       45.370954   45.744033   49.115929                                       
C       46.748609   48.170743   42.942962                                       
C       48.059352   45.746535   49.130168                                       
C       49.435340   43.516954   42.972367                                       
C       49.402607   43.419624   49.170527                                       
C       50.776938   45.840918   42.969394                                       
C       52.092417   43.420181   49.180224                                       
C       53.564233   41.399634   30.650131                                       
C       53.505805   41.310602   36.813629                                       
C       54.908694   43.723405   30.632233                                       
C       56.194325   41.315985   36.824605                                       
C       53.466019   41.188635   42.964742                                       
C       53.437784   41.085480   49.159523                                       
C       54.809842   43.510939   42.975112                                       
C       56.127910   41.090565   49.118698                                       
H       57.221802   34.900957   36.905896                                       
H       58.633046   37.320545   30.928084                                       
H       57.150351   34.674850   48.877318                                       
H       58.534023   37.109000   42.856616                                       
C       45.496798   41.403269   30.616842                                       
C       45.445748   41.310972   36.814218                                       
C       46.843691   43.730161   30.643785                                       
C       48.128065   41.315128   36.813036                                       
C       49.529891   39.071668   30.646538                                       
C       49.475428   38.984024   36.812177                                       
C       50.878264   41.394165   30.627326                                       
C       52.160661   38.987086   36.818407                                       
C       45.405093   41.192420   42.972763                                       
C       45.372265   41.087958   49.176878                                       
C       46.751290   43.517722   42.967584                                       
C       48.056501   41.091090   49.179728                                       
C       49.435063   38.862253   42.960761                                       
C       49.404641   38.757968   49.157896                                       
C       50.782200   41.182975   42.970800                                       
C       52.091404   38.760592   49.134676                                       
C       53.546864   36.770698   30.805320                                       
C       53.516293   36.638190   36.843866                                       
C       54.918212   39.044530   30.739880                                       
C       56.188740   36.694516   36.865153                                       
C       53.449307   36.562401   42.905233                                       
C       53.447199   36.410904   49.043331                                       
C       54.818724   38.834748   42.930351                                       
C       56.120023   36.467238   48.985191                                       
H       61.276798   37.242458   36.935673                                       
H       62.676417   39.653832   30.970956                                       
H       61.203895   37.013567   48.819182                                       
H       62.571703   39.434524   42.832668                                       
H       28.281540   61.680107   36.961789                                       
H       28.190496   61.459965   48.830059                                       
C       29.389511   60.072858   30.871033                                       
C       29.302388   59.883078   36.910684                                       
C       30.681384   62.302748   30.871336                                       
C       32.015535   59.959748   36.871690                                       
C       33.397977   57.703673   30.680888                                       
C       33.355940   57.594810   36.833930                                       
C       34.739023   60.021544   30.682089                                       
C       36.043035   57.603419   36.823940                                       
H       29.660389   64.095422   30.983271                                       
H       32.320335   64.006733   36.938748                                       
C       33.395926   62.382710   30.778343                                       
C       33.355231   62.215798   36.890203                                       
C       34.745464   64.644220   30.815260                                       
C       36.033882   62.279436   36.867499                                       
C       29.307332   59.847313   42.898812                                       
C       29.213507   59.666939   48.940675                                       
C       30.597566   62.076677   42.904618                                       
C       31.927887   59.745526   49.037046                                       
C       33.315503   57.480596   42.971009                                       
C       33.270193   57.380458   49.124322                                       
C       34.655330   59.797101   42.973403                                       
C       35.960055   57.389114   49.166367                                       
H       29.572415   63.869886   42.858985                                       
H       32.235457   63.792621   48.873333                                       
C       33.312062   62.157152   42.944525                                       
C       33.269803   62.004104   48.991480                                       
C       34.660216   64.418514   42.931973                                       
C       35.950261   62.067505   49.059424                                       
C       41.465988   57.692931   30.630823                                       
C       41.417138   57.597314   36.826887                                       
C       42.812034   60.021307   30.621944                                       
C       44.100784   57.596254   36.831638                                       
C       41.377666   57.471680   42.978044                                       
C       41.339458   57.383142   49.164424                                       
C       42.722926   59.798421   42.985311                                       
C       44.025567   57.382546   49.154248                                       
C       37.429584   60.026897   30.641642                                       
C       37.386657   59.925784   36.834099                                       
C       38.775788   62.351822   30.666566                                       
C       40.070107   59.931434   36.828313                                       
C       37.344066   59.802908   42.984670                                       
C       37.304618   59.712666   49.148392                                       
C       38.689045   62.126660   42.979842                                       
C       39.990891   59.718440   49.170725                                       
C       41.462741   53.039904   30.687500                                       
C       41.418860   52.944755   36.844502                                       
C       42.809335   55.366021   30.670650                                       
C       44.103711   52.943222   36.855663                                       
C       41.374081   52.821919   42.953965                                       
C       41.341449   52.728212   49.110759                                       
C       42.720244   55.146532   42.959142                                       
C       44.028411   52.727075   49.074456                                       
C       37.430670   55.370145   30.623106                                       
C       37.388763   55.270705   36.820311                                       
C       38.775726   57.692458   30.621119                                       
C       40.075884   55.273143   36.829705                                       
C       37.344709   55.149800   42.980538                                       
C       37.307565   55.054864   49.177519                                       
C       38.689181   57.470265   42.983943                                       
C       39.996963   55.057315   49.154184                                       
C       41.439733   67.023521   30.782816                                       
C       41.449196   66.888642   36.905208                                       
C       42.865503   69.334054   30.879456                                       
C       44.073174   66.920414   36.897365                                       
C       41.351084   66.797214   42.946229                                       
C       41.372041   66.680415   49.002730                                       
C       42.777189   69.107752   42.911011                                       
C       43.999346   66.712877   49.055826                                       
H       37.771966   68.776816   30.922408                                       
H       40.415970   68.680583   36.958029                                       
H       37.682926   68.552717   42.884072                                       
H       40.341363   68.471176   48.886307                                       
C       41.463178   62.354145   30.643645                                       
C       41.416656   62.252272   36.838283                                       
C       42.813558   64.680415   30.687577                                       
C       44.099913   62.254125   36.832890                                       
C       41.374620   62.129329   42.986273                                       
C       41.338961   62.041117   49.151672                                       
C       42.723674   64.454288   42.977901                                       
C       44.024103   62.043385   49.173314                                       
H       33.713839   66.435836   30.923483                                       
H       33.626458   66.211788   42.890146                                       
C       37.418873   64.701350   30.757220                                       
C       37.402406   64.551828   36.891755                                       
C       38.805776   66.986529   30.816220                                       
C       40.055078   64.600970   36.872807                                       
C       37.332621   64.475470   42.953921                                       
C       37.321360   64.341247   48.993921                                       
C       38.718220   66.760602   42.930054                                       
C       39.976624   64.391521   49.063747                                       
C       61.654317   41.447147   30.860077                                       
C       61.540521   41.265859   36.897310                                       
C       62.940579   43.680864   30.859750                                       
H       63.606497   41.278568   36.946522                                       
C       61.652707   46.071614   30.768747                                       
C       61.535651   45.942455   36.881172                                       
C       62.937114   48.371122   30.804250                                       
H       63.603453   45.940194   36.928253                                       
H       65.004661   43.693216   30.969046                                       
C       61.550958   41.231659   42.885367                                       
C       61.476720   41.037559   48.931008                                       
C       62.837261   43.463574   42.888779                                       
H       63.541200   41.047527   48.819534                                       
C       61.549716   45.854723   42.931860                                       
C       61.474518   45.719404   48.985393                                       
C       62.833741   48.153276   42.915726                                       
H       63.540829   45.716837   48.866354                                       
H       64.903300   43.471997   42.839002                                       
C       61.651994   55.357784   30.774403                                       
C       61.535263   55.290531   36.898863                                       
C       62.939480   57.748861   30.870297                                       
H       63.602916   55.292587   36.950842                                       
H       65.004796   53.056562   30.908810                                       
C       61.550284   55.137907   42.933424                                       
C       61.473643   55.074530   48.999215                                       
C       62.838207   57.528901   42.895845                                       
H       63.539834   55.077385   48.882177                                       
H       64.903802   52.837979   42.860839                                       
C       61.650444   50.714636   30.747951                                       
C       61.535901   50.616526   36.884236                                       
C       62.936702   53.058410   30.805585                                       
H       65.005134   48.373097   30.909676                                       
C       61.547459   50.496267   42.940915                                       
C       61.473820   50.397068   48.990102                                       
C       62.833938   52.839032   42.913156                                       
H       64.903715   48.154102   42.868326                                       
H       41.822558   71.114457   30.987989                                       
H       44.451733   71.014229   37.017113                                       
H       41.735548   70.891490   42.860969                                       
H       44.384465   70.806864   48.862865                                       
C       45.443166   69.337596   30.885931                                       
C       45.495925   69.230814   36.960986                                       
H       46.483896   71.119949   31.001280                                       
C       48.071971   69.227918   36.980256                                       
C       49.495822   66.994860   30.836646                                       
C       49.498105   66.917450   36.928122                                       
H       50.525302   68.785940   30.958256                                       
C       52.130491   66.879399   36.964485                                       
H       49.110951   71.012276   37.054244                                       
C       45.353309   69.110346   42.916962                                       
C       45.424955   69.023991   48.972413                                       
H       46.397492   70.893681   42.873533                                       
C       48.002548   69.020200   48.984597                                       
C       49.401711   66.768256   42.944936                                       
C       49.428601   66.709409   49.071258                                       
H       50.433214   68.561206   42.902322                                       
C       52.062191   66.671706   49.046732                                       
H       49.044238   70.802024   48.886519                                       
H       57.219759   66.330161   37.042851                                       
H       57.152767   66.119796   48.954725                                       
H       53.166330   68.670092   37.042019                                       
H       53.097148   68.462196   48.954884                                       
C       57.596307   62.318159   30.834486                                       
C       57.535819   62.276599   36.927251                                       
H       58.630854   64.105929   30.956301                                       
C       60.249760   62.196689   36.978288                                       
C       57.499234   62.094634   42.941778                                       
C       57.469643   62.065711   49.070759                                       
H       58.534886   63.885355   42.898287                                       
C       60.184141   61.986554   48.983129                                       
C       53.545797   64.655840   30.835016                                       
C       53.515619   64.594292   36.922033                                       
C       56.187520   64.537448   36.964543                                       
C       53.450445   64.431535   42.948092                                       
C       53.447829   64.385487   49.095470                                       
C       56.120612   64.327709   49.046620                                       
C       61.652797   59.982209   30.879375                                       
C       61.539568   59.967231   36.956787                                       
H       62.674347   61.776114   30.994146                                       
H       63.605280   59.955662   37.011934                                       
H       65.003627   57.737397   30.975834                                       
H       61.272988   63.990307   37.053260                                       
C       61.552556   59.761194   42.906448                                       
C       61.476473   59.756592   48.969473                                       
H       62.573911   61.558092   42.862100                                       
H       63.540959   59.747317   48.858790                                       
H       64.904082   57.520421   42.840696                                       
H       61.203844   63.781276   48.885316                                       
H       63.537313   50.397288   48.855064                                       
H       36.290763   34.670263   48.830598                                       
H       36.289244   66.127755   48.858786                                       
H       27.245337   50.497964   42.860198                                       
H       54.482693   66.222392   42.902454                                       
H       63.602189   50.616569   36.934257                                       
H       54.481792   34.771870   42.852383                                       
H       36.366250   34.891581   36.892955                                       
H       36.368795   66.341463   36.942607                                       
H       54.576401   66.442918   30.972149                                       
H       27.331991   50.715805   30.949250                                       
H       54.577419   34.983201   30.940924                                       
%ENDBLOCK POSITIONS_ABS                                                         

--------------------------------------------------------------------------------
-------------------------------- END INPUT FILE --------------------------------
--------------------------------------------------------------------------------


 
<<<<<<<<<<<<<<<<<<<<<<<<<<<<<<<<< Full system >>>>>>>>>>>>>>>>>>>>>>>>>>>>>>>>>>
<<<<<<<<<<<<<<<<<<<<<<<<<<< PAW Dataset information >>>>>>>>>>>>>>>>>>>>>>>>>>>
File: ~/pp/paw/c_pbe_abinit.paw; rc = 1.25 bohr; shape type =  3; rshape = 1.25 bohr;
  Atomic number:  6;  ionic charge:  4.000000
    Partial Wave 1: l = 0
    Partial Wave 2: l = 0
    Partial Wave 3: l = 1
    Partial Wave 4: l = 1
  Core charge supplied for Nonlinear Core Corrections
File: ~/pp/paw/h_pbe_abinit.paw; rc = 0.90 bohr; shape type =  3; rshape = 0.90 bohr;
  Atomic number:  1;  ionic charge:  1.000000
    Partial Wave 1: l = 0
    Partial Wave 2: l = 0
<<<<<<<<<<<<<<<<<<<<<<<<<<<<<<<<<<<<<<< >>>>>>>>>>>>>>>>>>>>>>>>>>>>>>>>>>>>>>>

-------------------------- Atom counting information ---------------------------
Symbol    Natoms    Nngwfs    Nprojs
  C        484      1936      3872
  H        108       108       216
.......   ......    ......    ......
Totals:    592      2044      4088
--------------------------------------------------------------------------------

=============================== PSINC grid sizes ===============================
                      Simulation cell:  189 x 189 x 189
                              FFT-box:  117 x 117 x 117
                                  PPD:    7 x   7 x   1
Grid space d1=  0.499927596032a0 (KE cutoff=  30.39413Eh = 827.06648eV)
Grid space d2=  0.499927596032a0 (KE cutoff=  30.39413Eh = 827.06648eV)
Grid space d3=  0.499927596032a0 (KE cutoff=  30.39413Eh = 827.06648eV)
================================================================================

********************* Fourier parallelisation information **********************
       Coarse grid (whole simulation cell) dimensions:    189   189   189
          Real-space ('12') slabs/node (min max mean):      2     3     2
         Recip-space ('23') slabs/node (min max mean):      1     2     1
********************************************************************************

********************* Fourier parallelisation information **********************
       Double grid (whole simulation cell) dimensions:    378   378   378
          Real-space ('12') slabs/node (min max mean):      4     5     4
         Recip-space ('23') slabs/node (min max mean):      2     3     2
********************************************************************************

Atom SCF Calculation for C  : Z (AE atom) =   6 : Z (PS atom) =   4
Config String: 2s2 2p2
Orbitals (num,occ):  2     2.00 2.00
Orbitals   (num,l):  2        0    1
Real-space Grid (nr,dr,rmax): 1377    0.0065406977    9.0000000000
Spherical Bessel Basis (nsws,lmax,cutoff):   37    2  183.0099912382
Confining potential (l,width,scale):  0    3.0000000000  100.0000000000
Confining potential (l,width,scale):  1    3.0000000000  100.0000000000
  1         -5.4350126632   -1.2715272878    4.5135247139   -1.5681949477
  2         -5.3876836850   -1.3562195125    4.4235426751   -1.5380057521
  3         -5.3928844498   -1.3758175853    4.4021699684   -1.5318377811
  4         -5.3988962903   -1.3800385428    4.3975423583   -1.5307324410
  5         -5.4018428823   -1.3823489590    4.3950111904   -1.5301555648
  6         -5.4033571720   -1.3835805046    4.3936635548   -1.5298576834
  7         -5.4041480647   -1.3842324820    4.3929512000   -1.5297032953
  8         -5.4045641108   -1.3845769138    4.3925755232   -1.5296229456
  9         -5.4047838258   -1.3847587737    4.3923775340   -1.5295810042
 10         -5.4049001347   -1.3848548089    4.3922731819   -1.5295590658
 11         -5.4049618018   -1.3849055476    4.3922181562   -1.5295475724
 12         -5.4049945351   -1.3849323732    4.3921891206   -1.5295415432
 13         -5.4050119258   -1.3849465673    4.3921737867   -1.5295383767
 14         -5.4050211723   -1.3849540841    4.3921656816   -1.5295367119
 15         -5.4050260920   -1.3849580684    4.3921613935   -1.5295358358
 16         -5.4050287113   -1.3849601822    4.3921591228   -1.5295353742
 17         -5.4050301068   -1.3849613045    4.3921579192   -1.5295351307
 18         -5.4050308507   -1.3849619010    4.3921572806   -1.5295350022
 19         -5.4050312476   -1.3849622183    4.3921569415   -1.5295349343
 20         -5.4050314594   -1.3849623873    4.3921567612   -1.5295348984
 21         -5.4050315725   -1.3849624773    4.3921566653   -1.5295348794
 22         -5.4050316330   -1.3849625253    4.3921566143   -1.5295348693
Atom SCF converged after  22 iterations to a total energy of     -5.40503163

Atom SCF Calculation for H  : Z (AE atom) =   1 : Z (PS atom) =   1
Config String: 1s1
Orbitals (num,occ):  1     1.00
Orbitals   (num,l):  1        0
Real-space Grid (nr,dr,rmax): 1377    0.0065406977    9.0000000000
Spherical Bessel Basis (nsws,lmax,cutoff):   37    1  183.0099912382
Confining potential (l,width,scale):  0    3.0000000000  100.0000000000
  1         -0.3605254152   -0.2399954029    0.2820952946   -0.2424203210
  2         -0.4156854077   -0.2398249290    0.2871789324   -0.2464796203
  3         -0.4412552402   -0.2379720642    0.2899127187   -0.2499011370
  4         -0.4517265951   -0.2371980236    0.2908966173   -0.2514141636
  5         -0.4557775773   -0.2369735141    0.2911607883   -0.2519713623
  6         -0.4573363459   -0.2369240355    0.2912108681   -0.2521663171
  7         -0.4579443228   -0.2369187864    0.2912112833   -0.2522344454
  8         -0.4581858602   -0.2369215483    0.2912049187   -0.2522587615
  9         -0.4582834939   -0.2369242589    0.2912002081   -0.2522677042
 10         -0.4583235236   -0.2369258837    0.2911975892   -0.2522710965
 11         -0.4583401154   -0.2369267223    0.2911962825   -0.2522724192
 12         -0.4583470483   -0.2369271266    0.2911956643   -0.2522729467
 13         -0.4583499624   -0.2369273145    0.2911953803   -0.2522731607
 14         -0.4583511926   -0.2369274000    0.2911952521   -0.2522732486
 15         -0.4583517136   -0.2369274385    0.2911951948   -0.2522732850
 16         -0.4583519349   -0.2369274556    0.2911951693   -0.2522733002
 17         -0.4583520290   -0.2369274632    0.2911951581   -0.2522733066
Atom SCF converged after  17 iterations to a total energy of     -0.45835203

Determining parallel strategy ...
... using space-filling curve
... NGWF load balancing: max     29;  min     25;  average     26
... Projector load balancing: max     58;  min     50;  average     51
... done
Calculating Ewald energy ...
              Ewald: real-space energy =   35552.052151
        Ewald: reciprocal-space energy =   33441.245112
         Ewald: (sum_charge)**2 Energy =    2633.028967
         Ewald: (sum_charge**2) Energy =     240.804719
                          Ewald Energy =   66119.463576
======================= Empirical dispersion information =======================
Model : Grimme D2
Dispersion Correction Energy: -0.17536434E+01 Hartree
================================================================================
Basis initialisation ...... NGWF spheres initialised
... Projector spheres initialised
... NGWF tight boxes initialised
... Projector tight boxes initialised
... Tight-boxes gathered
... NGWF basis size (local,global):     339866  26987908
... PAW projector initialisation
... done

============================= Charge Augmentation ==============================
                           Aug box size:   13 x  13 x  13
================================================================================

========================== Sparse matrix information ===========================
                        Overlap matrix filling:  39.60%
                        Density kernel filling: 100.00%
              NGWF-Proj overlap matrix filling:  11.36%
                    Aug Overlap matrix filling:  43.93%
                    Hamiltonian matrix filling:  43.93%
                  NGWF diagonal matrix filling:   0.19%
                             KS matrix filling: 100.00% 
                           KSKS matrix filling: 100.00% 
================================================================================

Sparse matrix initialisation ... done
NGWF initialisation ...... done
============ Calculation of NGWF S^-1 using Hotelling algorithm ================ 
         Iteration  |  Frobenius norm and Maximum abs value    (of I-S*S_n^-1)   
               1       0.43996607E+02     0.98082809E+00
               2       0.42990967E+02     0.96254659E+00
               3       0.41421046E+02     0.92837724E+00
               4       0.39301940E+02     0.86829913E+00
               5       0.36748543E+02     0.77495594E+00
               6       0.33819514E+02     0.68939474E+00
               7       0.30754433E+02     0.63942115E+00
               8       0.27848513E+02     0.60192126E+00
               9       0.24826044E+02     0.56145250E+00
              10       0.21012062E+02     0.49799375E+00
              11       0.15927542E+02     0.39457055E+00
              12       0.98320874E+01     0.25296652E+00
              13       0.42565220E+01     0.11099055E+00
              14       0.97894978E+00     0.24270972E-01
              15       0.64811158E-01     0.14332162E-02
              16       0.35600869E-03     0.64438217E-05
              17       0.15023064E-07     0.19379165E-09
              18       0.64712318E-13     0.32532570E-14
================================================================================
Calculating core density ...
================================= Core Density =================================
               Core den box size:   21 x  21 x  21
================================================================================
 ... done
Up spin density kernel initialisation ...... done

Writing density kernel to file "0/592nano.dkn" ... done

>>> Optimising kernel for current NGWFs:

--------------------------- Ensemble-DFT optimisation --------------------------
Running ScaLAPACK on   80 processor(s).

--------------------------------------------------------------------------------
  Iter                              Commutator    Free_energy(A=E-TS)     DeltaA
#    0                          0.000611120660   -2814.06944345222382  -2.81E+03

Step                       =       0.381966011250
Energy                     =   -2814.064371932035
Entropy (-TS)              =      -0.005071520282
Free energy (A=E-TS)       =   -2814.069443452224
Est. 0K Energy 0.5*(E+A)   =   -2814.066907692129
Residual Non-orthogonality =       0.000000000000
Residual N_electrons       =       0.000000000093

Spin          Integrated_Ne            Fermi_level     Delta_Fermi_level
   1      2044.000000000343        -0.271495748915             -2.71E-01

                           Spin 1          
     Orb      H-eigenvalues     Occupancies
       1 |    -0.9876640461    1.0000000000 | 
                          ------
    1018 |    -0.2960314740    0.9995684819 | 
    1019 |    -0.2894862195    0.9966012450 | 
    1020 |    -0.2894551351    0.9965678347 | 
    1021 |    -0.2888074639    0.9957922368 | 
    1022 |    -0.2784013881    0.8984964048 | 
                 - Gap at zero temperature -
    1023 |    -0.2648289966    0.1085930180 | 
    1024 |    -0.2524942003    0.0024720936 | 
    1025 |    -0.2500565549    0.0011464221 | 
    1026 |    -0.2499220766    0.0010988110 | 
    1027 |    -0.2455724864    0.0002784707 | 
                          ------
    2044 |     0.5665461726    0.0000000000 | 

                       |  Abs_value |  Threshold | Converged
     Delta_Free_energy |   2.81E+03 |   1.00E-06 |        No
     Delta_Energy      |   2.81E+03 |   1.00E-04 |        No
     Delta_Entropy     |   5.07E-03 |   1.00E-04 |        No
     Commutator        |   6.11E-04 |   1.00E-05 |        No
     Delta_Fermi_level |   2.71E-01 |   1.00E-03 |        No

  Line search of the free energy minimum:
  Step_type        Step             Free_energy   Predicted_free_energy
.   Initial    0.000000    -2814.06944345222382
.    Trial1    0.381966    -2814.31526481666924
.    Trial2    0.618034    -2814.19863762170371
. Quadratic    0.365800    -2814.31568908081863    -2814.31574585200678

--------------------------------------------------------------------------------
  Iter                              Commutator    Free_energy(A=E-TS)     DeltaA
#    1                          0.000278913945   -2814.31568908081863  -2.46E-01

Step                       =       0.365800178473
Energy                     =   -2814.310502381077
Entropy (-TS)              =      -0.005186699318
Free energy (A=E-TS)       =   -2814.315689080819
Est. 0K Energy 0.5*(E+A)   =   -2814.313095730948
Residual Non-orthogonality =       0.000000000000
Residual N_electrons       =      -0.000000000423

Spin          Integrated_Ne            Fermi_level     Delta_Fermi_level
   1      2043.999999998294        -0.248178759670              2.33E-02

                           Spin 1          
     Orb      H-eigenvalues     Occupancies
       1 |    -0.9730095860    1.0000000000 | 
                          ------
    1018 |    -0.2736216487    0.9996759308 | 
    1019 |    -0.2664604474    0.9968989252 | 
    1020 |    -0.2663940531    0.9968334309 | 
    1021 |    -0.2632364285    0.9914635416 | 
    1022 |    -0.2550833191    0.8984653031 | 
                 - Gap at zero temperature -
    1023 |    -0.2416548425    0.1130367857 | 
    1024 |    -0.2275872888    0.0014977798 | 
    1025 |    -0.2261785533    0.0009604804 | 
    1026 |    -0.2261185556    0.0009424717 | 
    1027 |    -0.2226457191    0.0003149767 | 
                          ------
    2044 |     0.5847965308    0.0000000000 | 

                       |  Abs_value |  Threshold | Converged
     Delta_Free_energy |   2.46E-01 |   1.00E-06 |        No
     Delta_Energy      |   2.46E-01 |   1.00E-04 |        No
     Delta_Entropy     |   1.15E-04 |   1.00E-04 |        No
     Commutator        |   2.79E-04 |   1.00E-05 |        No
     Delta_Fermi_level |   2.33E-02 |   1.00E-03 |        No

  Line search of the free energy minimum:
  Step_type        Step             Free_energy   Predicted_free_energy
.   Initial    0.000000    -2814.31568908081863
.    Trial1    0.365800    -2814.28466020954284
.    Trial2    0.139723    -2814.36319647862001
. Quadratic    0.160330    -2814.36402051577761    -2814.36399446649239

--------------------------------------------------------------------------------
  Iter                              Commutator    Free_energy(A=E-TS)     DeltaA
#    2                          0.000136197831   -2814.36402051577761  -4.83E-02

Step                       =       0.160330290998
Energy                     =   -2814.358913170030
Entropy (-TS)              =      -0.005107346174
Free energy (A=E-TS)       =   -2814.364020515778
Est. 0K Energy 0.5*(E+A)   =   -2814.361466842904
Residual Non-orthogonality =       0.000000000000
Residual N_electrons       =       0.000000000427

Spin          Integrated_Ne            Fermi_level     Delta_Fermi_level
   1      2044.000000001746        -0.244501943649              3.68E-03

                           Spin 1          
     Orb      H-eigenvalues     Occupancies
       1 |    -0.9632288901    1.0000000000 | 
                          ------
    1018 |    -0.2697357588    0.9996538212 | 
    1019 |    -0.2623232686    0.9964154437 | 
    1020 |    -0.2622529481    0.9963352516 | 
    1021 |    -0.2602333855    0.9930882499 | 
    1022 |    -0.2514752811    0.9004294980 | 
                 - Gap at zero temperature -
    1023 |    -0.2379042732    0.1107227592 | 
    1024 |    -0.2239408306    0.0015121851 | 
    1025 |    -0.2223543158    0.0009168330 | 
    1026 |    -0.2222982901    0.0009007699 | 
    1027 |    -0.2187524427    0.0002941726 | 
                          ------
    2044 |     0.5947008706    0.0000000000 | 

                       |  Abs_value |  Threshold | Converged
     Delta_Free_energy |   4.83E-02 |   1.00E-06 |        No
     Delta_Energy      |   4.84E-02 |   1.00E-04 |        No
     Delta_Entropy     |   7.94E-05 |   1.00E-04 |       Yes
     Commutator        |   1.36E-04 |   1.00E-05 |        No
     Delta_Fermi_level |   3.68E-03 |   1.00E-03 |        No

  Line search of the free energy minimum:
  Step_type        Step             Free_energy   Predicted_free_energy
.   Initial    0.000000    -2814.36402051577761
.    Trial1    0.160330    -2814.37252797133806
.    Trial2    0.481056    -2814.37351454521422
. Quadratic    0.335495    -2814.37571679929306    -2814.37571616541027

--------------------------------------------------------------------------------
  Iter                              Commutator    Free_energy(A=E-TS)     DeltaA
#    3                          0.000073803193   -2814.37571679929306  -1.17E-02

Step                       =       0.335494696454
Energy                     =   -2814.370653683487
Entropy (-TS)              =      -0.005063115760
Free energy (A=E-TS)       =   -2814.375716799293
Est. 0K Energy 0.5*(E+A)   =   -2814.373185241390
Residual Non-orthogonality =       0.000000000000
Residual N_electrons       =      -0.000000000046

Spin          Integrated_Ne            Fermi_level     Delta_Fermi_level
   1      2043.999999999810        -0.240612152085              3.89E-03

                           Spin 1          
     Orb      H-eigenvalues     Occupancies
       1 |    -0.9612620320    1.0000000000 | 
                          ------
    1018 |    -0.2656496090    0.9996316851 | 
    1019 |    -0.2585637908    0.9965594567 | 
    1020 |    -0.2584814349    0.9964691286 | 
    1021 |    -0.2567205316    0.9938591002 | 
    1022 |    -0.2475924644    0.9006267899 | 
                 - Gap at zero temperature -
    1023 |    -0.2339709238    0.1093756830 | 
    1024 |    -0.2203338177    0.0016531936 | 
    1025 |    -0.2186107255    0.0009601108 | 
    1026 |    -0.2185476446    0.0009411930 | 
    1027 |    -0.2146633683    0.0002762361 | 
                          ------
    2044 |     0.5967776946    0.0000000000 | 

                       |  Abs_value |  Threshold | Converged
     Delta_Free_energy |   1.17E-02 |   1.00E-06 |        No
     Delta_Energy      |   1.17E-02 |   1.00E-04 |        No
     Delta_Entropy     |   4.42E-05 |   1.00E-04 |       Yes
     Commutator        |   7.38E-05 |   1.00E-05 |        No
     Delta_Fermi_level |   3.89E-03 |   1.00E-03 |        No

  Line search of the free energy minimum:
  Step_type        Step             Free_energy   Predicted_free_energy
.   Initial    0.000000    -2814.37571679929306
.    Trial1    0.335495    -2814.37554606549338
.    Trial2    0.128148    -2814.37872375013558
. Quadratic    0.165547    -2814.37888565366939    -2814.37888546768818

--------------------------------------------------------------------------------
  Iter                              Commutator    Free_energy(A=E-TS)     DeltaA
#    4                          0.000039385076   -2814.37888565366939  -3.17E-03

Step                       =       0.165546613677
Energy                     =   -2814.373834702443
Entropy (-TS)              =      -0.005050951098
Free energy (A=E-TS)       =   -2814.378885653669
Est. 0K Energy 0.5*(E+A)   =   -2814.376360178056
Residual Non-orthogonality =       0.000000000000
Residual N_electrons       =      -0.000000000128

Spin          Integrated_Ne            Fermi_level     Delta_Fermi_level
   1      2043.999999999466        -0.239682313152              9.30E-04

                           Spin 1          
     Orb      H-eigenvalues     Occupancies
       1 |    -0.9588987566    1.0000000000 | 
                          ------
    1018 |    -0.2646783141    0.9996268337 | 
    1019 |    -0.2575740245    0.9964939598 | 
    1020 |    -0.2574955680    0.9964063302 | 
    1021 |    -0.2558676883    0.9940057210 | 
    1022 |    -0.2466780294    0.9010612756 | 
                 - Gap at zero temperature -
    1023 |    -0.2330266189    0.1089314961 | 
    1024 |    -0.2193849763    0.0016433195 | 
    1025 |    -0.2177002973    0.0009660081 | 
    1026 |    -0.2176382122    0.0009472718 | 
    1027 |    -0.2137567950    0.0002782725 | 
                          ------
    2044 |     0.5993558275    0.0000000000 | 

                       |  Abs_value |  Threshold | Converged
     Delta_Free_energy |   3.17E-03 |   1.00E-06 |        No
     Delta_Energy      |   3.18E-03 |   1.00E-04 |        No
     Delta_Entropy     |   1.22E-05 |   1.00E-04 |       Yes
     Commutator        |   3.94E-05 |   1.00E-05 |        No
     Delta_Fermi_level |   9.30E-04 |   1.00E-03 |       Yes

  Line search of the free energy minimum:
  Step_type        Step             Free_energy   Predicted_free_energy
.   Initial    0.000000    -2814.37888565366939
.    Trial1    0.165547    -2814.37959126525084
[...]
 C   309 -- C   377       -0.10      5.37729
 C   245 -- C   345       -0.10      5.37730
 C    15 -- C    89       -0.10      5.37733
 C    32 -- C   102       -0.10      5.37738
 C   250 -- C   280       -0.10      5.37739
 C   119 -- C   125       -0.10      5.37739
 C    39 -- C   506       -0.10      5.37746
 C   113 -- C   119       -0.10      5.37746
 C    38 -- C    56       -0.10      5.37747
 C   375 -- C   377       -0.10      5.37747
 C   216 -- C   234       -0.10      5.37748
 C   115 -- C   479       -0.10      5.37749
 C   436 -- C   454       -0.10      5.37750
 C   347 -- C   349       -0.10      5.37757
 C    22 -- C   250       -0.10      5.37758
 C    80 -- C   538       -0.10      5.37759
 C   461 -- C   479       -0.10      5.37759
 C    30 -- C   454       -0.10      5.37765
 C    46 -- C   128       -0.10      5.37765
 C   198 -- C   224       -0.10      5.37767
 C    82 -- C   116       -0.10      5.37768
 C    39 -- C   516       -0.10      5.37769
 C   216 -- C   282       -0.10      5.37770
 C   328 -- C   384       -0.10      5.37770
 C   194 -- C   288       -0.10      5.37771
 C   208 -- C   298       -0.10      5.37772
 C   252 -- C   286       -0.10      5.37773
 C    20 -- C    46       -0.10      5.37774
 C   362 -- C   376       -0.10      5.37774
 C   438 -- C   480       -0.10      5.37775
 C   191 -- C   221       -0.10      5.37777
 C    24 -- C    38       -0.10      5.37778
 C   351 -- C   361       -0.10      5.37780
 C   287 -- C   301       -0.10      5.37780
 C   444 -- C   462       -0.10      5.37783
 C   275 -- C   375       -0.10      5.37784
 C    11 -- C    77       -0.10      5.37786
 C     3 -- C   447       -0.10      5.37788
 C   215 -- C   225       -0.10      5.37788
 C     7 -- C   121       -0.10      5.37789
 C   224 -- C   306       -0.10      5.37789
 C   266 -- C   422       -0.10      5.37794
 C   193 -- C   267       -0.10      5.37795
 C   420 -- C   444       -0.10      5.37798
 C   255 -- C   269       -0.10      5.37801
 C   245 -- C   267       -0.10      5.37805
 C   105 -- C   449       -0.10      5.37806
 C   407 -- C   457       -0.10      5.37809
 C   258 -- C   288       -0.10      5.37812
 C   356 -- C   382       -0.10      5.37819
 C   243 -- C   347       -0.10      5.37821
 C   436 -- C   482       -0.10      5.37822
 C   315 -- C   349       -0.10      5.37830
 C     7 -- C    57       -0.10      5.37831
 C   352 -- C   378       -0.10      5.37832
 C   274 -- C   304       -0.10      5.37836
 C    62 -- C   356       -0.10      5.37839
 C    28 -- C   126       -0.10      5.37840
 C    88 -- C   118       -0.10      5.37845
 C   277 -- C   373       -0.10      5.37846
 C   274 -- C   460       -0.10      5.37848
 C    63 -- C   101       -0.10      5.37848
 C   109 -- C   123       -0.10      5.37853
 C    37 -- C    47       -0.10      5.37854
 C   107 -- C   109       -0.10      5.37854
 C    28 -- C   114       -0.10      5.37856
 C   218 -- C   280       -0.10      5.37863
 C   217 -- C   223       -0.10      5.37879
 C   349 -- C   363       -0.10      5.37881
 C   237 -- C   275       -0.10      5.37882
 C   437 -- C   443       -0.10      5.37886
 C   449 -- C   455       -0.10      5.37888
 C    78 -- C   112       -0.10      5.37898
 C   257 -- C   267       -0.10      5.37900
 C    46 -- C    64       -0.10      5.37901
 C    88 -- C   560       -0.10      5.37904
 C   204 -- C   294       -0.10      5.37908
 C   210 -- C   280       -0.10      5.37909
 C   441 -- C   463       -0.10      5.37912
 C   277 -- C   299       -0.10      5.37915
 C   256 -- C   290       -0.10      5.37920
 C   358 -- C   388       -0.10      5.37936
 C   424 -- C   436       -0.10      5.37941
 C   342 -- C   388       -0.10      5.37955
 C    35 -- C    41       -0.10      5.37960
 C   227 -- C   237       -0.10      5.37968
 C    35 -- C   497       -0.10      5.37976
 C   431 -- C   441       -0.10      5.37994
 C   289 -- C   455       -0.10      5.37996
 C   257 -- C   439       -0.10      5.37998
 C    48 -- C    62       -0.10      5.38002
 C   332 -- C   388       -0.10      5.38003
 C   260 -- C   294       -0.10      5.38014
 C   272 -- C   294       -0.10      5.38020
 C    88 -- C   547       -0.10      5.38034
 C    35 -- C   511       -0.10      5.38040
 C    64 -- C   366       -0.10      5.38042
 C    57 -- C   379       -0.10      5.38044
 C   446 -- C   460       -0.10      5.38045
 C   264 -- C   424       -0.10      5.38049
 C   218 -- C   386       -0.10      5.38057
 C   226 -- C   304       -0.10      5.38060
 C   105 -- C   111       -0.10      5.38068
 C    86 -- C   482       -0.10      5.38069
 C   193 -- C   219       -0.10      5.38088
 C   457 -- C   475       -0.10      5.38091
 C   111 -- C   121       -0.10      5.38096
 C   210 -- C   296       -0.10      5.38099
 C    94 -- C   116       -0.10      5.38104
 C   289 -- C   299       -0.10      5.38109
 C   413 -- C   441       -0.10      5.38111
 C    97 -- C   123       -0.10      5.38119
 C   266 -- C   296       -0.10      5.38124
 C    48 -- C   126       -0.10      5.38128
 C   226 -- C   382       -0.10      5.38128
 C    33 -- C   363       -0.10      5.38129
 C   107 -- C   475       -0.10      5.38132
 C   366 -- C   384       -0.10      5.38132
 C   114 -- C   446       -0.10      5.38133
 C   183 -- C   237       -0.10      5.38145
 C   373 -- C   379       -0.10      5.38148
 C   360 -- C   386       -0.10      5.38153
 C   211 -- C   221       -0.10      5.38158
 C    94 -- C   128       -0.10      5.38160
 C    33 -- C    43       -0.10      5.38167
 C    59 -- C    97       -0.10      5.38182
 C   264 -- C   298       -0.10      5.38193
 C   211 -- C   315       -0.10      5.38208
 C    86 -- C   120       -0.10      5.38226
 C   433 -- C   439       -0.10      5.38249
 C   416 -- C   476       -0.10      5.38292
 C   213 -- C   219       -0.10      5.38305
 C   440 -- C   488       -0.10      5.38325
 C   220 -- C   238       -0.10      5.38331
 C   205 -- C   263       -0.10      5.38338
 C   293 -- C   295       -0.10      5.38340
 C    36 -- C    98       -0.10      5.38343
 C   186 -- C   212       -0.10      5.38368
 C   385 -- C   395       -0.10      5.38382
 C    34 -- C   100       -0.10      5.38394
 C   333 -- C   365       -0.10      5.38408
 C    85 -- C    95       -0.10      5.38424
 C    87 -- C    93       -0.10      5.38426
 C   189 -- C   255       -0.10      5.38810
 C    77 -- C    91       -0.10      5.38818
 C   224 -- C   242       -0.10      5.38842
 C   319 -- C   361       -0.10      5.38864
 C    38 -- C   104       -0.10      5.38866
 C   285 -- C   287       -0.10      5.38867
 C   444 -- C   492       -0.10      5.38874
 C    79 -- C    89       -0.10      5.38892
 C   377 -- C   391       -0.10      5.38920
 C    76 -- C   564       -0.10      5.38935
 C    40 -- C   102       -0.10      5.38939
 C   202 -- C   216       -0.10      5.38951
 C   430 -- C   480       -0.10      5.38955
 C   316 -- C   390       -0.10      5.38999
 C   364 -- C   390       -0.10      5.39018
 C   423 -- C   489       -0.10      5.39031
 C   201 -- C   239       -0.10      5.39040
 C    92 -- C   564       -0.10      5.39045
 C   254 -- C   284       -0.10      5.39063
 C   103 -- C   525       -0.10      5.39089
 C    55 -- C   525       -0.10      5.39098
 C   233 -- C   239       -0.10      5.39105
 C   481 -- C   489       -0.10      5.39115
 C   190 -- C   284       -0.10      5.39150
 C   409 -- C   485       -0.10      5.39331
 C    84 -- C   567       -0.10      5.39337
 C   330 -- C   394       -0.10      5.39343
 C   368 -- C   394       -0.10      5.39362
 C   262 -- C   292       -0.10      5.39379
 C   185 -- C   235       -0.10      5.39389
 C    99 -- C   521       -0.10      5.39436
 C   206 -- C   292       -0.10      5.39457
 C    96 -- C   567       -0.10      5.39482
 C    51 -- C   521       -0.10      5.39489
 C   477 -- C   485       -0.10      5.39518
 C    74 -- C   488       -0.09      5.39543
 C   229 -- C   235       -0.10      5.39549
 C   205 -- C   207       -0.09      5.39601
 C   408 -- C   416       -0.09      5.39613
 C   293 -- C   421       -0.09      5.39617
 C   327 -- C   333       -0.09      5.39660
 C   238 -- C   314       -0.09      5.39665
 C    66 -- C   100       -0.09      5.39669
 C    53 -- C   395       -0.09      5.39678
 C    81 -- C    87       -0.09      5.39679
 C    69 -- C    95       -0.09      5.39691
 C   186 -- C   192       -0.09      5.39701
 C    36 -- C    50       -0.09      5.39702
 C   285 -- C   407       -0.09      5.39929
 C   422 -- C   430       -0.09      5.39957
 C    73 -- C    79       -0.09      5.39970
 C   202 -- C   208       -0.09      5.39973
 C   189 -- C   191       -0.09      5.39986
 C   242 -- C   328       -0.09      5.39994
 C    65 -- C    91       -0.09      5.40005
 C    40 -- C    54       -0.09      5.40012
 C    82 -- C   492       -0.09      5.40040
 C    49 -- C   391       -0.09      5.40046
 C    70 -- C   104       -0.09      5.40061
 C   313 -- C   319       -0.09      5.40086
 C   466 -- C   538       -0.09      5.42502
 C   230 -- C   318       -0.09      5.42526
 C   197 -- C   199       -0.09      5.42555
 C   343 -- C   506       -0.09      5.42604
 C   252 -- C   406       -0.09      5.42613
 C    71 -- C   516       -0.09      5.42615
 C   261 -- C   427       -0.09      5.42615
 C    83 -- C   467       -0.09      5.42618
 C    68 -- C   556       -0.09      5.42630
 C   231 -- C   323       -0.09      5.42644
 C    52 -- C   338       -0.09      5.42650
 C   182 -- C   188       -0.09      5.42670
 C   253 -- C   413       -0.09      5.42829
 C   234 -- C   332       -0.09      5.42859
 C   181 -- C   183       -0.09      5.42862
 C   260 -- C   420       -0.09      5.42883
 C    75 -- C   463       -0.09      5.42897
 C    67 -- C   511       -0.09      5.42911
 C   198 -- C   204       -0.09      5.42919
 C   470 -- C   547       -0.09      5.42928
 C    56 -- C   342       -0.09      5.42946
 C    72 -- C   560       -0.09      5.42969
 C   227 -- C   309       -0.09      5.42987
 C   339 -- C   497       -0.09      5.43011
==================================================


=================== Orbital energy and occupancy information ===================

      Total number of orbitals:    2044
        Occupancy sum (kernel):    1022.000000000
   Occupancy sum (eigenvalues):    1022.000000000
                 HOMO-LUMO gap:       0.016845165 Eh
                 Mid-gap level:      -0.121733215 Eh

                        Orbital | Energy (Eh) | Occupancy
                            1    -0.836084086   1.0000000
                        .......   ...........   .........
                         1013    -0.154080486   0.9999688
                         1014    -0.153978021   0.9999678
                         1015    -0.148552361   0.9998214
                         1016    -0.146905563   0.9996996
                         1017    -0.145854934   0.9995815
                         1018    -0.145361407   0.9995108
                         1019    -0.140571944   0.9977855
                         1020    -0.135682204   0.9897141
                         1021    -0.135588675   0.9894088
                         1022    -0.130155798   0.9437463
                        ....... -- gap at 0K -- .........
                         1023    -0.113310633   0.0758234
                         1024    -0.101356555   0.0018734
                         1025    -0.101279466   0.0018284
                         1026    -0.096642849   0.0004235
                         1027    -0.096136219   0.0003624
                         1028    -0.095572860   0.0003021
                         1029    -0.092029132   0.0000986
                         1030    -0.090437647   0.0000598
                         1031    -0.090015923   0.0000521
                         1032    -0.089529559   0.0000448
                        .......   ...........   .........
                         2044     0.772869410   0.0000000

================================================================================

===================== Writing canonical molecular orbitals =====================
| Orbital  Energy (eV)  Norm     |
| HOMO     -3.54171948  1.000000 | Writing "0/592nano_HOMO.cube" ... done
Writing "0/592nano_HOMO.dx" ... done
| LUMO     -3.08333921  1.000000 | Writing "0/592nano_LUMO.cube" ... done
Writing "0/592nano_LUMO.dx" ... done
================================================================================
 
===================== Density of States (DOS) calculation ======================
Writing "0/592nano_DOS.txt" ...  done
================================================================================
 
Writing bands to file "0/592nano.val_bands" ... done
 
================ Projected Density of States (pDOS) calculation ================
 
Constructing AM resolved functions  ...... done
Writing NGWF plot files in formats: CUBE DX ...  done
 
Performing overlap integrals ...  done
 
Computing pDOS weights ...  done
 
All bands spilling parameter =   3.82 %
Occupancy-weighted spilling parameter =   1.00 %
 
 => Outputting data for OptaDOS <=
 
Writing pDOS weights to file "0/592nano.val_pdos_bin" ... done
 
Writing band gradients to file "0/592nano.val_dome_bin" ... done
 
Writing Castep output cell file to "0/592nano-out.cell" ... done
 
 => Computing Gaussian smeared pDOS <= 
Writing "0/592nano_PDOS.txt" ...  done
 
 => Computing Occupancy-weighted Gaussian smeared pDOS <= 
Writing "0/592nano_occ_PDOS.txt" ...  done
  => Band centres: 
 S band centre of group 1:  -13.344725 eV
 P band centre of group 1:   -7.220018 eV
  Band centres done. <=
  => Integrated number of electrons in each AM band: 
 S num electrons of group 1:  530.366242
 P num electrons of group 1: 1493.091730
  Integrated number of electrons done. <=
================================================================================

------------------------------ TIMING INFORMATION ------------------------------
AVERAGE TIME:    7527.439s on     80 node(s)                                    
TOTAL TIME:      7527.440s on     80 node(s)                                    
================= AVERAGE TIMINGS FROM ALL NODES (CUMULATIVE) ==================
|| TAG                                    #calls    cpu time   %total  Gflops ||
|| work_imbalance                       :     1        0.00s   0.000%  ------ ||
|| paw_tcore_density                    :     1        0.01s   0.000%  ------ ||
|| sparse_set_to_garbage                :   147        0.01s   0.000%  ------ ||
|| paw_sphere_density_on_grid           :     1        0.01s   0.000%  ------ ||
|| paw_dij_hartree                      :   536        0.03s   0.000%  ------ ||
|| basis_extract_function_from_box      :   664        0.04s   0.000%  ------ ||
|| ngwfs_initialise_from_radial         :     2        0.07s   0.001%  ------ ||
|| density_init_guess_real              :     1        0.12s   0.002%  ------ ||
|| paw_tcore_hartree_on_grid            :     1        0.16s   0.002%  ------ ||
|| ewald_calculate_energy               :     1        0.19s   0.003%  ------ ||
|| pseudo_make_structure_factor         :     1        0.62s   0.008%  ------ ||
|| paw_dataset_init                     :     2        0.65s   0.009%  ------ ||
|| sparse_init                          :     1        0.76s   0.010%  ------ ||
|| restart_kernel_write                 :    14        0.89s   0.012%  ------ ||
|| paw_species_calc_proj_prec_mat       :     1        1.00s   0.013%  ------ ||
|| dense_normal_eigensolve              :     1        1.03s   0.014%  ------ ||
|| ngwf_gradient_coeffs                 :    13        4.80s   0.064%  ------ ||
|| sparse_embed_hotelling_invert_embed  :    25        5.58s   0.074%  ------ ||
|| sw_init                              :     1        7.52s   0.100%  ------ ||
|| augmentation_screen_dij              :   406        8.06s   0.107%  ------ ||
|| sparse_trace                         :  4954        8.93s   0.119%  ------ ||
|| fourier_apply_box_pair               :   990       11.17s   0.148%  1.171k ||
|| projectors_init_fftbox_recip         :    79       15.74s   0.209%  ------ ||
|| basis_copy_function_to_box           : 14589       15.88s   0.211%  ------ ||
|| hartree_on_grid                      :   401       21.82s   0.290%  ------ ||
|| paw_dij_xc                           :   536       24.77s   0.329%  ------ ||
|| aug_nonlocal_mat                     :   523       32.15s   0.427%  ------ ||
|| function_ops_brappd_ketppd           :    52       33.22s   0.441%  ------ ||
|| eigenstates_pdos                     :     1       40.55s   0.539%  ------ ||
|| augmentation_density_on_grid         :   401       45.54s   0.605%  ------ ||
|| fourier_apply_cell_forward           :  2001       51.34s   0.682% 135.654 ||
|| integrals_kinetic                    :    25       51.98s   0.691%  ------ ||
|| projectors_func_ovlp_box             :    26       52.52s   0.698%  ------ ||
|| fourier_apply_cell_backward          :  2002       57.41s   0.763% 121.366 ||
|| hamiltonian_energy_components        :     3       69.97s   0.930%  ------ ||
|| eigenstates_calculate                :     1       80.01s   1.063%  ------ ||
|| basis_dot_function_with_box          : 3.276M      89.28s   1.186%  ------ ||
|| sparse_product                       :  4589       91.44s   1.215%  ------ ||
|| xc_energy_potential                  :   400      102.43s   1.361%  ------ ||
|| restart_ngwfs_tightbox_output        :    12      110.15s   1.463%  ------ ||
|| dense_eigensolve                     :   372      117.05s   1.555%  ------ ||
|| integrals_locpot_mat_els_batch       :   262      241.70s   3.211%  ------ ||
|| basis_add_function_to_box            : 9.368M     250.94s   3.334%  ------ ||
|| cell_grid_deposit_box_real           : 24543      254.48s   3.381%  ------ ||
|| cell_grid_extract_box_real           :  7567      275.26s   3.657%  ------ ||
|| edft_diag_ngwf_ham                   :   371      283.73s   3.769%  ------ ||
|| density_fftbox_deposit_to_cell       : 11629      454.53s   6.038%  ------ ||
|| projectors_gradient_batch            :    26      493.47s   6.556%  ------ ||
|| edft_apply_smearing_operator         :   371      524.63s   6.970%  ------ ||
|| density_batch_row_sums               :   802      624.41s   8.295%  ------ ||
|| projectors_grad_precond_batch        :    26      697.82s   9.270%  ------ ||
|| properties_calculate                 :     1      748.51s   9.944%  ------ ||
|| potential_apply_to_ngwf_batch        :   262      749.85s   9.962%  ------ ||
|| integrals_locpot_dbl_grid            :   131      994.93s  13.217%  ------ ||
|| fourier_apply_box                    : 46867     1138.04s  15.119%  1.729k ||
|| density_fftbox_interpolate_multiply  : 11629     1295.66s  17.213%  ------ ||
|| ngwf_gradient_build_batch            :    26     1326.11s  17.617%  ------ ||
|| ngwf_gradient_batch                  :    26     1429.75s  18.994%  ------ ||
|| ngwf_gradient_lnv                    :    13     1695.30s  22.522%  ------ ||
|| density_batch_interp_deposit         :   802     2087.49s  27.732%  ------ ||
|| density_on_dbl_grid                  :   401     2786.71s  37.021%  ------ ||
|| hamiltonian_lhxc_calculate           :   396     3019.72s  40.116%  ------ ||
|| edft_calculate                       :    13     4465.76s  59.326%  ------ ||
|| ngwf_cg_optimise                     :     1     6760.58s  89.813%  ------ ||
|| total_time                           :     1     7527.44s 100.000%  ------ ||
================================================================================
Overhead of generating timer report: 
- 0 ms averaging over threads,
- 12 ms ensuring consistency across MPI ranks,
- 0 ms printing in order.

Job completed: 10-05-2020 14:39 (+0100)

