 +---------------------------------------------------------------+
 |                                                               |
 |        ####### #     # ####### ####### ####### ######         |
 |        #     # ##    # #          #    #       #     #        |
 |        #     # # #   # #          #    #       #     #        |
 |        #     # #  #  # #####      #    #####   ######         |
 |        #     # #   # # #          #    #       #              |
 |        #     # #    ## #          #    #       #              |
 |        ####### #     # #######    #    ####### #              |
 |                                                               |
 |        Linear-Scaling Ab Initio Total Energy Program          |
 |                                                               |
 |          Release for academic collaborators of ODG            |
 |                                             Version 5.3.2.12  |
 |                                                               |
 +---------------------------------------------------------------+
 |                                                               |
 |  Authors:                                                     |
 |  Jacek Dziedzic, Peter D. Haynes, Nicholas D. M. Hine,        |
 |  Arash. A. Mostofi, Mike C. Payne and Chris-Kriton Skylaris   |
 |                                                               |
 |  Contributors:                                                |
 |  J. Aarons, L. Andrinopoulos, P. W. Avraam, R. A. Bell,       |
 |  A. Bhandari, G. A. Bramley, R. J. Charlton, S. J. Clark,     |
 |  R. J. Clements, G. C. Constantinescu, F. Corsetti,           |
 |  N. Corsini, O. Dieguez, S. M. M. Dubois, K. K. B. Duff,      |
 |  J. M. Escartin, A. Greco, H. Helal, Q. O. Hill, L. P. Lee,   |
 |  J.-H. Li, E. B. Linscott, G. Moynihan, D. D. O`Regan,        |
 |  O. K. Okan, M. J. S. Phipps, C. J. Pickard,                  |
 |  J. C. A. Prentice, M. I. J. Probert, L. E. Ratcliff,         |
 |  M. Robinson, A. Ruiz Serrano, J. S. Spencer, E. W. Tait,     |
 |  G. Teobaldi, D. Turban, V. Vitale, K. A. Wilkinson,          |
 |  C. Weber, J. C. Womack, N. Yeung and T. J. Zuehlsdorff       |
 |                                                               |
 |                                   Copyright (c) 2004-2020     |
 |                                                               |
 |  Please cite:                                                 |
 |  "Introducing ONETEP: Linear-scaling density functional       |
 |   simulations on parallel computers".                         |
 |   C.-K. Skylaris, P. D. Haynes, A. A. Mostofi, M. C. Payne.   |
 |   J. Chem. Phys. 122 084119 (2005).                           |
 |                                                               |
 |          in all publications arising from your use of ONETEP. |
 |                                                               |
 +---------------------------------------------------------------+
 |                                                               |
 |   ONETEP is based on developments described in the following  |
 |   publications:                                               |
 |                                                               |
 |  "Nonorthogonal generalized Wannier function pseudopotential  |
 |   plane-wave method".                                         |
 |   C.-K. Skylaris, A. A. Mostofi, P. D. Haynes, O. Dieguez,    |
 |   M. C. Payne.                                                |
 |   Phys. Rev. B 66 035119 (2002).                              |
 |                                                               |
 |  "Preconditioned iterative minimization for linear-scaling    |
 |   electronic structure calculations".                         |
 |   A. A. Mostofi, P. D. Haynes, C.-K. Skylaris, M. C. Payne.   |
 |   J. Chem. Phys. 119(17), pp.8842-8848 (2003).                |
 |                                                               |
 |  "Total-energy calculations on a real space grid with         |
 |   localized functions and a plane-wave basis".                |
 |   A. A. Mostofi, C.-K. Skylaris, P. D. Haynes, M. C. Payne.   |
 |   Comput. Phys. Commun. 147, pp.788-802 (2002).               |
 |                                                               |
 |  "Accurate kinetic energy evaluation in electronic structure  |
 |   calculations with localized functions on real space grids"  |
 |   C.-K. Skylaris, A. A. Mostofi, P. D. Haynes, C. J. Pickard, |
 |   M. C. Payne.                                                |
 |   Comput. Phys. Commun. 140, pp.315-322 (2001).               |
 |                                                               |
 |  "Accurate ionic forces and geometry optimization in linear-  |
 |   scaling density-functional theory with local orbitals"      |
 |   N. D. M. Hine, M. Robinson, P. D. Haynes, C.-K. Skylaris,   |
 |   M. C. Payne, and A. A. Mostofi.                             |
 |   Phys. Rev. B 83 195102 (2011).                              |
 |                                                               |
 +---------------------------------------------------------------+

Job started: 22-07-2020 08:28 (+0100)
 
Reading parameters from file "42/592nano.dat" ...... done

If your calculation crashes here, before "Checking processes and threads..."
is displayed, then your stack size is insufficient.
If so, use "ulimit -s unlimited" at runtime.
You can disable this check with "check_stack_size F".

Checking processes and threads...
   Determining the default number of threads...
      No default threads set at compilation time: defaulting to 1.
      OpenMP library call suggests 4 threads.
      Hybrid MPI-OpenMP compilation detected.
      Number of MPI processes > 1.
      OMP_NUM_THREADS environment variable present and
      its value matches the one obtained from the OpenMP library call.
      Using this value as default.
      Default threads: 4
      Default applies to threads_max and threads_num_fftboxes.
      Settings in the input file override this default.
   ... done

   Running with 160 MPI processes.
   There are 10 MPI processes running on the same node as the root process.
   Each MPI process is using: 
               1 threads for simulation cell FFTs.
               1 threads for parallel FFT box operations.
               4 threads for loops over batched FFT box operations.
               4 threads in other parallel regions.
... done

Basic input checks...
Resetting ngwf_cg_rotate to TRUE for EDFT calculations
... done

Reading geometry and species blocks from file "42/592nano.dat" ...    
  Number of PPD points along a3 set to 1.  This is 
  the default value, it may have been provided also in the input file.
... done
 Writing xyz coordinates to file "42/592nano.xyz" ... done


--------------------------------------------------------------------------------
---------------------------------- INPUT FILE ----------------------------------
--------------------------------------------------------------------------------

task : singlepoint                                                              
ddec_classical_hirshfeld T                                                      
do_properties : true                                                            
dx_format T                                                                     
edft T                                                                          
output_detail VERBOSE                                                           
write_xyz T                                                                     
dispersion 4                                                                    
xc_functional PBE                                                               
cutoff_energy 830 eV                                                            
paw T                                                                           
geom_disp_tol 0.015 bohr                                                        
geom_energy_tol 1.5E-6 hartree                                                  
geom_force_tol 0.01 "ha/bohr"                                                   
%BLOCK SPECIES_LDOS_GROUPS                                                      
C                                                                               
H                                                                               
Li                                                                              
%ENDBLOCK SPECIES_LDOS_GROUPS                                                   
EDFT_MAXIT 30                                                                   
pdos_max_l = 2                                                                  
dos_smear  0.1 eV                                                               
popn_calculate T                                                                
PDOS_PSEUDOATOMIC T                                                             
PDOS_REDUCE_SWS F                                                               
PDOS_CONSTRUCT_BASIS F                                                          
PDOS_LOWDIN T                                                                   
PDOS_ORTH_ATOM_BLOCKS F                                                         
PDOS_LCAO_OPTIMIZE F                                                            
pdos_optados_output T                                                           
homo_plot 0                                                                     
lumo_plot 0                                                                     
homo_dens_plot -1                                                               
lumo_dens_plot -1                                                               
%BLOCK SPECIES                                                                  
C C 6 4 9.0                                                                     
H H 1 1 9.0                                                                     
Li Li 3 5 9.0                                                                   
%ENDBLOCK SPECIES                                                               
%BLOCK SPECIES_POT                                                              
C "~/pp/paw/c_pbe_abinit.paw"                                                   
H "~/pp/paw/h_pbe_abinit.paw"                                                   
Li "~/pp/paw/li_pbe_abinit.paw"                                                 
%ENDBLOCK SPECIES_POT                                                           
%BLOCK SPECIES_ATOMIC_SET                                                       
C "SOLVE conf=2s2 2p2"                                                          
H "SOLVE conf=1s1"                                                              
Li "SOLVE conf=1s2 2s1 2p0"                                                     
%ENDBLOCK SPECIES_ATOMIC_SET                                                    
%BLOCK LATTICE_CART                                                             
94.486315650000      0.000000000000       0.000000000000                        
0.000000000000       94.486315650000      0.000000000000                        
0.000000000000       0.000000000000       94.486315650000                       
%ENDBLOCK LATTICE_CART                                                          
%BLOCK POSITIONS_ABS                                                            
C 45.532238 50.730097 30.345212                                                 
C 45.440554 50.560602 36.131764                                                 
C 46.879781 53.068086 30.345579                                                 
C 48.139436 50.552176 36.105955                                                 
C 49.586120 48.393853 30.356058                                                 
C 49.495566 48.209904 36.129678                                                 
C 50.943407 50.734553 30.342251                                                 
C 52.212505 48.206759 36.181231                                                 
C 45.520479 55.400832 30.317698                                                 
C 45.434859 55.240476 36.283675                                                 
C 46.868239 57.741128 30.264829                                                 
C 48.149881 55.235374 36.319739                                                 
C 49.586485 53.071870 30.338604                                                 
C 49.504126 52.888571 36.099460                                                 
C 50.932296 55.408034 30.279226                                                 
C 52.223327 52.882193 36.220130                                                 
C 45.389835 50.529818 43.520950                                                 
C 45.444370 50.454374 49.380007                                                 
C 46.744795 52.878580 43.527754                                                 
C 48.146789 50.474052 49.406511                                                 
C 49.441164 48.166819 43.585735                                                 
C 49.509384 48.143156 49.478499                                                 
C 50.804237 50.519515 43.476942                                                 
C 52.208562 48.159456 49.581925                                                 
C 45.403113 55.238894 43.459320                                                 
C 45.405045 55.137400 49.420703                                                 
C 46.758960 57.570659 43.343375                                                 
C 48.112887 55.161455 49.415161                                                 
C 49.449808 52.874095 43.587517                                                 
C 49.481132 52.826389 49.412846                                                 
C 50.809996 55.229091 43.495169                                                 
C 52.178227 52.844373 49.488805                                                 
C 57.690481 48.376192 29.982928                                                 
C 57.567558 48.167865 36.821845                                                 
C 59.054703 50.706741 29.960753                                                 
C 60.289435 48.150968 37.107489                                                 
C 57.558351 48.171953 43.115305                                                 
C 57.572564 48.191615 50.045323                                                 
C 58.911510 50.516649 42.987088                                                 
C 60.300535 48.207757 50.305079                                                 
C 53.642395 50.733303 30.282246                                                 
C 53.571628 50.538355 36.328268                                                 
C 54.992778 53.073632 30.214473                                                 
C 56.250194 50.521853 36.684077                                                 
C 53.507800 50.511801 43.320902                                                 
C 53.538722 50.505606 49.594321                                                 
C 54.858519 52.856477 43.167061                                                 
C 56.235120 50.522906 49.822408                                                 
C 57.662230 43.707929 29.703445                                                 
C 57.566477 43.482249 36.649059                                                 
C 59.022566 46.028091 29.703957                                                 
C 60.282166 43.479650 36.902893                                                 
C 57.545291 43.480117 43.109256                                                 
C 57.612666 43.509600 50.219319                                                 
C 58.906819 45.813133 43.072622                                                 
C 60.325261 43.535405 50.416007                                                 
C 53.641102 46.056008 30.219406                                                 
C 53.549148 45.841472 36.341582                                                 
C 54.989765 48.382526 30.192747                                                 
C 56.235357 45.839092 36.609425                                                 
C 53.509662 45.824627 43.462129                                                 
C 53.565417 45.822653 49.757478                                                 
C 54.857530 48.168348 43.291616                                                 
C 56.251179 45.843931 49.988745                                                 
C 57.678237 57.760991 29.917606                                                 
C 57.589216 57.539947 36.989760                                                 
C 59.040487 60.155908 29.710994                                                 
C 60.308868 57.518734 37.164484                                                 
C 57.562485 57.529780 42.935031                                                 
C 57.555989 57.556812 49.737848                                                 
C 58.912406 59.865353 42.930724                                                 
C 60.301098 57.554632 49.808500                                                 
C 45.485487 64.752707 30.066026                                                 
C 45.442562 64.584381 36.586776                                                 
C 46.864084 67.119196 30.019089                                                 
C 48.113450 64.587463 36.871344                                                 
C 49.535856 62.403463 29.904653                                                 
C 49.478889 62.238066 36.872868                                                 
C 50.887354 64.779531 29.665814                                                 
C 52.175521 62.245058 36.954461                                                 
C 45.436431 64.578628 43.129931                                                 
C 45.327987 64.454402 50.277458                                                 
C 46.816862 66.930787 43.021907                                                 
C 48.016416 64.499969 50.192432                                                 
C 49.464403 62.213051 42.961507                                                 
C 49.400999 62.183997 49.886465                                                 
C 50.836241 64.575991 42.768013                                                 
C 52.107556 62.217209 49.881879                                                 
C 53.599550 60.075377 29.876188                                                 
C 53.534656 59.894922 36.893101                                                 
C 54.949771 62.445313 29.661553                                                 
C 56.252346 59.881593 36.972197                                                 
C 53.516842 59.853631 42.933324                                                 
C 53.484409 59.888610 49.702123                                                 
C 54.886447 62.201472 42.731045                                                 
C 56.193953 59.899050 49.801936                                                 
C 57.709900 53.067129 30.055782                                                 
C 57.574943 52.861027 36.913245                                                 
C 59.056550 55.405478 29.936772                                                 
C 60.299081 52.851004 37.174146                                                 
C 57.552879 52.854116 42.970588                                                 
C 57.557888 52.876810 49.890120                                                 
C 58.904501 55.207272 42.875631                                                 
C 60.283829 52.894035 50.170689                                                 
C 45.500608 60.077278 30.188704                                                 
C 45.446351 59.904609 36.563464                                                 
C 46.843883 62.407128 30.056766                                                 
C 48.137117 59.901309 36.691876                                                 
C 49.561735 57.743721 30.220999                                                 
C 49.491400 57.566921 36.574488                                                 
C 50.903928 60.084474 30.012164                                                 
C 52.196451 57.560823 36.680870                                                 
C 45.416306 59.900960 43.232988                                                 
C 45.372469 59.806841 49.715431                                                 
C 46.776596 62.228949 43.102146                                                 
C 48.064663 59.835740 49.666559                                                 
C 49.463112 57.564697 43.315290                                                 
C 49.442108 57.510615 49.498382                                                 
C 50.817016 59.886459 43.070471                                                 
C 52.150253 57.532825 49.529016                                                 
C 53.638934 55.405520 30.207112                                                 
C 53.556395 55.225807 36.555809                                                 
C 54.979700 57.758225 30.024605                                                 
C 56.245629 55.201319 36.819978                                                 
C 53.514109 55.202265 43.223102                                                 
C 53.511448 55.201008 49.537353                                                 
C 54.859978 57.535095 43.016744                                                 
C 56.213001 55.207760 49.701701                                                 
H 27.298105 41.344172 29.468122                                                 
H 28.198665 39.488341 36.686718                                                 
H 27.128395 41.269248 42.652245                                                 
H 28.353457 39.206632 50.671932                                                 
H 41.894052 30.267631 29.504529                                                 
C 42.937476 32.052092 29.552136                                                 
H 44.385981 30.092272 36.770625                                                 
H 41.657471 30.072962 42.906450                                                 
C 42.697517 31.858975 42.957575                                                 
H 44.557960 29.976458 49.661714                                                 
H 29.648713 37.245489 29.453720                                                 
C 30.687624 39.030755 29.513249                                                 
H 32.241358 37.141299 36.461706                                                 
H 33.761495 34.858264 29.504351                                                 
C 34.782760 36.653673 29.556506                                                 
H 29.406341 37.219776 43.360584                                                 
C 30.472843 38.987594 43.232050                                                 
H 32.451392 36.912898 50.842584                                                 
H 33.494213 34.779142 44.007623                                                 
C 34.532252 36.543875 43.711576                                                 
H 37.854359 32.568121 29.361431                                                 
C 38.865607 34.371906 29.410693                                                 
H 40.344449 32.428018 36.997013                                                 
H 37.600851 32.383348 43.238984                                                 
C 38.610607 34.185406 43.154785                                                 
H 40.486374 32.302484 50.262561                                                 
H 46.565785 30.272815 29.878889                                                 
H 46.346123 30.078668 43.113448                                                 
H 25.814785 48.204455 36.272253                                                 
C 27.876808 48.223913 36.399901                                                 
H 25.853766 47.945966 50.131207                                                 
C 27.919689 47.963661 50.090551                                                 
H 25.836894 43.547645 36.591402                                                 
H 27.302060 46.063298 29.266306                                                 
C 27.903092 43.542182 36.665046                                                 
H 25.937585 43.228847 50.257301                                                 
H 27.147992 45.969933 42.644319                                                 
C 28.003989 43.254368 50.260653                                                 
H 25.864781 57.689498 36.578021                                                 
H 27.301299 60.026641 29.047449                                                 
C 27.930164 57.669840 36.609706                                                 
H 25.774553 57.322721 49.658369                                                 
H 27.211084 59.918090 43.456839                                                 
C 27.842420 57.335476 49.713975                                                 
H 25.793887 52.954114 36.258821                                                 
H 27.323702 55.335093 28.989542                                                 
C 27.856528 52.939907 36.306882                                                 
H 25.799322 52.621714 49.960214                                                 
H 27.204711 55.263529 43.721345                                                 
C 27.871020 52.635215 49.931170                                                 
C 29.363459 41.341605 29.528202                                                 
C 29.219562 41.285974 36.712709                                                 
C 30.644031 43.699561 29.569002                                                 
C 31.882785 41.229083 36.767121                                                 
C 33.375583 38.942454 29.568301                                                 
C 33.273477 38.930654 36.705640                                                 
C 34.740348 41.346386 29.701375                                                 
C 35.944040 38.877346 36.861436                                                 
C 29.367028 46.051828 29.377023                                                 
C 29.179507 45.889670 36.682949                                                 
C 30.681737 48.363735 29.259872                                                 
C 31.903423 45.882228 36.792306                                                 
C 33.391374 43.687258 29.708462                                                 
C 33.246838 43.558686 36.823809                                                 
C 34.747357 46.035107 29.775763                                                 
C 35.952166 43.558893 36.819090                                                 
C 29.184594 41.261959 42.834491                                                 
C 29.357553 41.005243 50.517661                                                 
C 30.488204 43.606157 42.750503                                                 
C 32.044323 40.975748 50.520192                                                 
C 33.137040 38.877795 43.377319                                                 
C 33.458914 38.711083 50.677519                                                 
C 34.527569 41.227308 43.185402                                                 
C 36.112861 38.705216 50.660122                                                 
C 29.212589 45.956837 42.739775                                                 
C 29.243903 45.635398 50.145067                                                 
C 30.513555 48.278502 42.803201                                                 
C 31.982238 45.651271 50.042607                                                 
C 33.208911 43.567217 42.971591                                                 
C 33.364594 43.347066 50.200242                                                 
C 34.573935 45.903149 43.022231                                                 
C 36.068458 43.375863 50.063841                                                 
C 41.508553 39.035475 29.735074                                                 
C 41.367664 38.871052 36.857765                                                 
C 42.848222 41.377093 30.022242                                                 
C 44.063325 38.861431 36.722672                                                 
C 41.309840 38.837668 43.164039                                                 
C 41.509802 38.754398 50.093714                                                 
C 42.660417 41.165043 43.322142                                                 
C 44.185253 38.762225 49.816183                                                 
C 37.457208 41.351925 29.795642                                                 
C 37.309054 41.236113 36.864181                                                 
C 38.790888 43.698510 30.006856                                                 
C 40.006179 41.206775 36.802034                                                 
C 37.248014 41.200812 43.259757                                                 
C 37.449801 41.077731 50.286187                                                 
C 38.605447 43.533085 43.295730                                                 
C 40.133511 41.072238 50.018007                                                 
C 41.524260 34.347833 29.445618                                                 
C 41.371305 34.219491 36.949028                                                 
C 42.886767 36.702391 29.541121                                                 
C 44.047635 34.163792 36.795740                                                 
C 41.302471 34.143178 42.961711                                                 
C 41.517910 34.093022 50.169036                                                 
C 42.681378 36.490251 43.043674                                                 
C 44.178137 34.050750 49.829966                                                 
C 37.465886 36.625856 29.478868                                                 
C 37.324434 36.568009 36.779971                                                 
C 38.825449 39.011278 29.654060                                                 
C 40.009713 36.494582 36.928361                                                 
C 37.231374 36.452914 43.358515                                                 
C 37.500294 36.426587 50.493866                                                 
C 38.602971 38.836381 43.258508                                                 
C 40.167813 36.375820 50.413084                                                 
C 41.484778 48.385555 30.248787                                                 
C 41.358807 48.222792 36.359827                                                 
C 42.830964 50.725985 30.300578                                                 
C 44.075053 48.217309 36.197415                                                 
C 41.315289 48.200500 43.439979                                                 
C 41.410906 48.081469 49.461502                                                 
C 42.677696 50.538815 43.440744                                                 
C 44.112301 48.104976 49.424846                                                 
C 29.384498 55.349234 29.163990                                                 
C 29.175524 55.315966 36.465330                                                 
C 30.659134 57.696392 29.275822                                                 
C 31.922808 55.305323 36.551090                                                 
C 33.418797 53.047732 29.506201                                                 
C 33.271283 52.931108 36.506336                                                 
C 34.739291 55.384036 29.698670                                                 
C 35.971456 52.923461 36.536393                                                 
C 29.269250 55.256093 43.602139                                                 
C 29.139942 54.965918 49.747661                                                 
C 30.563892 57.582849 43.445831                                                 
C 31.888033 55.010593 49.712738                                                 
C 33.268269 52.921517 43.341783                                                 
C 33.261553 52.680635 49.702516                                                 
C 34.610896 55.247390 43.300346                                                 
C 35.964820 52.712686 49.577212                                                 
C 37.437922 50.717076 30.013624                                                 
C 37.319822 50.575839 36.534025                                                 
C 38.775450 53.056571 30.110670                                                 
C 40.002419 50.573071 36.399180                                                 
C 37.289638 50.563460 43.213099                                                 
C 37.339054 50.385871 49.530253                                                 
C 38.639749 52.898570 43.266964                                                 
C 40.039265 50.409382 49.438620                                                 
C 41.490966 43.708722 30.126255                                                 
C 41.361892 43.538943 36.625017                                                 
C 42.834895 46.046458 30.259027                                                 
C 44.070032 43.527786 36.474601                                                 
C 41.305705 43.512100 43.423264                                                 
C 41.454766 43.412236 49.704673                                                 
C 42.655583 45.837563 43.606328                                                 
C 44.148590 43.430742 49.590002                                                 
C 29.403361 50.703517 29.228268                                                 
C 29.138551 50.563406 36.391047                                                 
C 30.696542 53.041862 29.133851                                                 
C 31.905097 50.566701 36.502320                                                 
C 33.413888 48.367462 29.580056                                                 
C 33.260884 48.233527 36.692133                                                 
C 34.745955 50.710728 29.716673                                                 
C 35.961688 48.231115 36.658867                                                 
C 29.234770 50.593581 43.238564                                                 
C 29.181103 50.325181 50.023929                                                 
C 30.543125 52.927342 43.576611                                                 
C 31.934446 50.347484 49.871809                                                 
C 33.248667 48.244376 42.968982                                                 
C 33.309295 48.018050 49.855034                                                 
C 34.593725 50.573879 43.161548                                                 
C 36.011682 48.036871 49.672930                                                 
C 37.443882 46.034016 29.997078                                                 
C 37.298639 45.897962 36.718145                                                 
C 38.793991 48.380399 30.104790                                                 
C 40.009759 45.892039 36.577113                                                 
C 37.268717 45.880133 43.213349                                                 
C 37.382273 45.717296 49.744104                                                 
C 38.627140 48.213137 43.271234                                                 
C 40.082494 45.736257 49.613739                                                 
C 45.525110 32.055290 29.765365                                                 
C 45.431821 31.867901 36.629515                                                 
C 46.926039 34.353429 29.891679                                                 
C 48.007953 31.851495 36.281897                                                 
H 49.032255 30.059903 36.155105                                                 
H 50.595139 32.589635 30.111583                                                 
C 45.561804 36.700691 29.839490                                                 
C 45.404749 36.506214 36.638840                                                 
C 46.887295 39.037390 30.086637                                                 
C 48.072285 36.491509 36.303021                                                 
C 49.565953 34.382041 30.063712                                                 
C 49.417647 34.135354 36.101118                                                 
C 50.938817 36.649708 30.161367                                                 
C 52.092603 34.158273 35.943657                                                 
C 45.303280 31.862405 43.079399                                                 
C 45.590503 31.767103 49.673948                                                 
C 46.697404 34.141364 43.211894                                                 
C 48.236109 31.773517 49.612477                                                 
H 49.270663 29.985240 49.559705                                                 
H 50.392261 32.375075 43.438258                                                 
C 45.358950 36.487422 43.177837                                                 
C 45.550900 36.421297 49.742222                                                 
C 46.705225 38.824698 43.320020                                                 
C 48.245232 36.433594 49.695568                                                 
C 49.368369 34.173114 43.375896                                                 
C 49.647778 34.073357 49.711290                                                 
C 50.735272 36.439113 43.471274                                                 
C 52.293931 34.131365 49.960373                                                 
H 53.097534 32.357454 35.812732                                                 
H 53.338144 32.346283 49.982680                                                 
C 57.651628 39.050760 29.669713                                                 
C 57.582364 38.764361 36.189784                                                 
C 58.993174 41.343623 29.379854                                                 
C 60.248515 38.833429 36.534833                                                 
C 57.500593 38.804851 43.051141                                                 
C 57.662111 38.806634 50.412751                                                 
C 58.899462 41.113022 42.955605                                                 
C 60.342636 38.902943 50.423009                                                 
C 45.535458 46.053502 30.318375                                                 
C 45.428052 45.868302 36.270836                                                 
C 46.887149 48.391849 30.354319                                                 
C 48.144256 45.862987 36.271612                                                 
C 49.581331 43.724051 30.317755                                                 
C 49.475386 43.516373 36.355911                                                 
C 50.935356 46.055440 30.328319                                                 
C 52.182480 43.501742 36.343928                                                 
C 45.380963 45.839392 43.595852                                                 
C 45.479346 45.776568 49.483430                                                 
C 46.731800 48.174731 43.561665                                                 
C 48.177254 45.795207 49.506016                                                 
C 49.416699 43.476191 43.529874                                                 
C 49.540899 43.463739 49.622419                                                 
C 50.787436 45.821866 43.642074                                                 
C 52.231559 43.479357 49.776563                                                 
C 53.636462 41.379819 30.133221                                                 
C 53.513198 41.154605 36.283469                                                 
C 54.980263 43.712090 30.038695                                                 
C 56.224570 41.152300 36.350783                                                 
C 53.470828 41.154872 43.323277                                                 
C 53.583582 41.146091 50.028744                                                 
C 54.844494 43.483748 43.310974                                                 
C 56.292580 41.170058 50.244543                                                 
H 57.218702 34.694273 35.759426                                                 
H 58.684936 37.260640 29.585368                                                 
H 57.360340 34.720000 50.387745                                                 
H 58.518188 37.002041 42.990534                                                 
C 45.533738 41.380585 30.148491                                                 
C 45.427232 41.188912 36.545276                                                 
C 46.883426 43.717051 30.292952                                                 
C 48.113309 41.179851 36.425844                                                 
C 49.566389 39.028341 30.223502                                                 
C 49.449450 38.831197 36.303088                                                 
C 50.934654 41.375640 30.278734                                                 
C 52.145165 38.810119 36.189695                                                 
C 45.355171 41.159595 43.375843                                                 
C 45.517848 41.100677 49.647234                                                 
C 46.721384 43.488740 43.515290                                                 
C 48.212534 41.115231 49.648870                                                 
C 49.393709 38.820375 43.399749                                                 
C 49.577455 38.785897 49.763314                                                 
C 50.765630 41.142121 43.418232                                                 
C 52.255006 38.793774 50.004584                                                 
C 53.619960 36.710836 30.013908                                                 
C 53.509611 36.426157 35.942399                                                 
C 55.008643 38.993383 29.990989                                                 
C 56.186489 36.476268 35.908655                                                 
C 53.428357 36.484496 43.191464                                                 
C 53.635385 36.414306 50.169776                                                 
C 54.823053 38.789170 43.180823                                                 
C 56.306129 36.497801 50.359466                                                 
H 61.284548 37.047184 36.497545                                                 
H 62.698071 39.612866 29.132872                                                 
H 61.389925 37.121247 50.429641                                                 
H 62.589444 39.374209 42.713395                                                 
H 28.246582 61.715823 37.021693                                                 
H 28.128165 61.416396 49.806271                                                 
C 29.362842 60.046935 29.185490                                                 
C 29.264373 59.925119 36.852706                                                 
C 30.657350 62.343317 29.296614                                                 
C 31.945046 59.976321 36.911172                                                 
C 33.377559 57.719876 29.542122                                                 
C 33.287559 57.618901 36.723299                                                 
C 34.706208 60.059695 29.614705                                                 
C 35.993062 57.606317 36.660578                                                 
H 29.616425 64.126394 29.217575                                                 
H 32.312872 64.063086 36.915514                                                 
C 33.344896 62.435990 29.431286                                                 
C 33.336952 62.270283 36.774395                                                 
C 34.719920 64.734975 29.460513                                                 
C 36.007505 62.306231 36.807190                                                 
C 29.276676 59.936374 43.378052                                                 
C 29.160544 59.627908 49.804958                                                 
C 30.561417 62.192395 43.213971                                                 
C 31.842765 59.708652 49.929441                                                 
C 33.261868 57.587383 43.306682                                                 
C 33.222778 57.349800 49.791807                                                 
C 34.595543 59.912733 43.160980                                                 
C 35.930697 57.372588 49.802479                                                 
H 29.532275 63.985856 43.171504                                                 
H 32.155371 63.776658 50.337254                                                 
C 33.244740 62.272960 43.126247                                                 
C 33.205778 61.996129 50.228075                                                 
C 34.612971 64.581548 43.190813                                                 
C 35.857752 62.038297 50.391449                                                 
C 41.461220 57.735479 30.173588                                                 
C 41.390327 57.582420 36.462767                                                 
C 42.802912 60.075134 30.146162                                                 
C 44.089304 57.577612 36.438652                                                 
C 41.356500 57.580057 43.273461                                                 
C 41.334339 57.431221 49.630826                                                 
C 42.715998 59.909928 43.260948                                                 
C 44.034103 57.459546 49.559810                                                 
C 37.421887 60.072467 29.808998                                                 
C 37.356074 59.925539 36.664068                                                 
C 38.767422 62.414987 29.775840                                                 
C 40.047632 59.921358 36.505330                                                 
C 37.313872 59.916373 43.168162                                                 
C 37.261787 59.699443 50.021973                                                 
C 38.662596 62.259075 43.243690                                                 
C 39.961879 59.751302 49.885118                                                 
C 41.475179 53.060185 30.253472                                                 
C 41.366003 52.908771 36.303243                                                 
C 42.820282 55.399182 30.272699                                                 
C 44.077077 52.906773 36.111215                                                 
C 41.332872 52.890270 43.368251                                                 
C 41.371133 52.763120 49.415329                                                 
C 42.695096 55.242924 43.380852                                                 
C 44.074353 52.787208 49.379590                                                 
C 37.423546 55.396369 29.980326                                                 
C 37.328226 55.255119 36.546192                                                 
C 38.766887 57.733325 30.023429                                                 
C 40.028774 55.245892 36.447740                                                 
C 37.308337 55.242435 43.238843                                                 
C 37.295006 55.054942 49.600448                                                 
C 38.660728 57.576976 43.224260                                                 
C 40.001499 55.085803 49.528177                                                 
C 41.396073 67.119611 29.995168                                                 
C 41.436526 66.888991 36.186136                                                 
C 42.811098 69.414032 30.111976                                                 
C 44.093680 66.924091 36.427942                                                 
C 41.364936 66.979963 43.366896                                                 
C 41.267343 66.709532 50.628815                                                 
C 42.797145 69.257170 43.292328                                                 
C 43.950808 66.779421 50.643281                                                 
H 37.715061 68.863554 29.701737                                                 
H 40.411063 68.685199 36.084935                                                 
H 37.661881 68.740448 43.315989                                                 
H 40.218074 68.490620 50.767593                                                 
C 41.446312 62.408105 29.996174                                                 
C 41.417282 62.246963 36.364257                                                 
C 42.789768 64.753980 30.045191                                                 
C 44.099450 62.242846 36.490272                                                 
C 41.372122 62.248075 43.305231                                                 
C 41.304928 62.084027 50.075978                                                 
C 42.744934 64.599908 43.308661                                                 
C 43.996712 62.116118 50.002190                                                 
H 33.679131 66.519144 29.391049                                                 
H 33.566266 66.362893 43.233700                                                 
C 37.394412 64.799036 29.588767                                                 
C 37.381126 64.583699 36.485251                                                 
C 38.750891 67.073968 29.736412                                                 
C 40.061030 64.617044 36.157343                                                 
C 37.281248 64.658584 43.259755                                                 
C 37.230502 64.365947 50.369651                                                 
C 38.680867 66.943861 43.334088                                                 
C 39.927091 64.442262 50.288615                                                 
C 61.681339 41.411050 29.244773                                                 
C 61.545191 41.107985 36.907619                                                 
C 63.004589 43.674464 29.292016                                                 
H 63.593381 41.093649 37.167713                                                 
C 61.744703 46.028301 29.466722                                                 
C 61.577187 45.823371 37.063485                                                 
C 63.067793 48.365048 29.556187                                                 
H 63.633131 45.805833 37.299352                                                 
H 65.069996 43.668310 29.199653                                                 
C 61.569522 41.170101 42.810479                                                 
C 61.629556 41.187917 50.432532                                                 
C 62.915947 43.452088 42.866265                                                 
H 63.698898 41.215458 50.464614                                                 
C 61.652728 45.823314 42.941182                                                 
C 61.615123 45.889413 50.242151                                                 
C 62.956633 48.166908 42.964468                                                 
H 63.681564 45.908303 50.371752                                                 
H 64.982079 43.436601 42.780208                                                 
C 61.840528 55.404061 29.820763                                                 
C 61.596752 55.167944 37.154444                                                 
C 63.099745 57.767493 29.757341                                                 
H 63.658796 55.163991 37.318060                                                 
H 65.183158 53.032783 29.722873                                                 
C 61.628046 55.199262 42.840820                                                 
C 61.589427 55.210497 50.012273                                                 
C 62.907024 57.555030 42.952272                                                 
H 63.656567 55.206391 50.085055                                                 
H 65.011988 52.873376 42.887269                                                 
C 61.805320 50.701517 29.725706                                                 
C 61.590926 50.498904 36.980603                                                 
C 63.118115 53.040172 29.804871                                                 
H 65.130119 48.347825 29.418501                                                 
C 61.669003 50.519212 42.895691                                                 
C 61.582375 50.553336 50.151454                                                 
C 62.942309 52.859493 42.897867                                                 
H 65.023924 48.156802 42.906643                                                 
H 41.779492 71.204010 30.153806                                                 
H 44.434160 71.005421 36.459046                                                 
H 41.781225 71.054909 43.348979                                                 
H 44.257049 70.850438 50.846047                                                 
C 45.458333 69.407801 30.123234                                                 
C 45.479100 69.222382 36.577602                                                 
H 46.496470 71.193732 30.180116                                                 
C 48.065900 69.233916 36.860717                                                 
C 49.540203 67.063578 29.817451                                                 
C 49.472131 66.944246 37.004050                                                 
H 50.579794 68.851469 29.771326                                                 
C 52.153562 66.909508 37.041550                                                 
H 49.099079 71.025054 36.956624                                                 
C 45.429321 69.228321 43.103532                                                 
C 45.321353 69.084930 50.698881                                                 
H 46.479011 71.006761 43.032737                                                 
C 47.940993 69.127026 50.563050                                                 
C 49.489145 66.864519 42.876408                                                 
C 49.364984 66.868295 50.394939                                                 
H 50.525764 68.649267 42.729632                                                 
C 52.049926 66.863258 50.318282                                                 
H 48.948804 70.928281 50.608216                                                 
H 57.270490 66.352064 37.059617                                                 
H 57.161152 66.370980 50.441976                                                 
H 53.170541 68.709844 37.079071                                                 
H 53.057425 68.665284 50.464223                                                 
C 57.618731 62.436261 29.851527                                                 
C 57.605261 62.262737 37.086042                                                 
H 58.628851 64.240302 29.765466                                                 
C 60.288510 62.170613 37.242264                                                 
C 57.544840 62.152867 42.830353                                                 
C 57.563581 62.290808 50.044893                                                 
H 58.585467 63.938616 42.699548                                                 
C 60.247243 62.219986 49.925141                                                 
C 53.569278 64.722334 29.756692                                                 
C 53.551202 64.631799 37.045381                                                 
C 56.230765 64.566483 37.001644                                                 
C 53.513244 64.509983 42.898327                                                 
C 53.466786 64.602705 50.198306                                                 
C 56.148259 64.578921 50.246046                                                 
C 61.730703 60.102674 29.695303                                                 
C 61.587039 59.872046 37.335056                                                 
H 62.754152 61.894140 29.576052                                                 
H 63.640403 59.856805 37.548776                                                 
H 65.163921 57.793804 29.750456                                                 
H 61.325123 63.951266 37.406219                                                 
C 61.593444 59.800533 42.993916                                                 
C 61.577212 59.917021 49.784546                                                 
H 62.608216 61.600785 43.025174                                                 
H 63.640257 59.924030 49.702055                                                 
H 64.977803 57.548022 42.960265                                                 
H 61.275414 64.011800 49.952200                                                 
H 63.648407 50.565125 50.278926                                                 
H 36.472743 34.634946 50.617980                                                 
H 36.177011 66.153419 50.422390                                                 
H 27.167466 50.598441 43.290880                                                 
H 54.551474 66.288661 42.667580                                                 
H 63.651218 50.488939 37.203384                                                 
H 54.466863 34.692419 43.249750                                                 
H 36.289454 34.779509 36.548858                                                 
H 36.356967 66.382689 36.499536                                                 
H 54.599907 66.515859 29.679517                                                 
H 27.339414 50.705809 29.081257                                                 
H 54.647521 34.919729 29.935714                                                 
Li 32.035632 41.385037 26.308513                                                
Li 30.722370 47.668660 33.136584                                                
Li 59.044852 59.793708 53.137981                                                
Li 35.995397 38.690955 33.052833                                                
Li 60.508180 57.716613 26.543809                                                
Li 42.464515 36.283791 33.387997                                                
Li 30.393079 57.251406 53.080342                                                
Li 35.782766 62.333448 46.578364                                                
Li 46.994794 33.988025 53.005489                                                
Li 30.291300 48.029421 46.601854                                                
Li 52.144348 39.037421 26.834810                                                
Li 35.783177 38.966885 46.814443                                                
Li 44.121963 67.202422 26.763280                                                
Li 35.908157 62.770467 33.004514                                                
Li 30.466064 53.154085 32.984582                                                
Li 40.352295 36.143001 46.560204                                                
Li 55.290345 38.562021 46.871409                                                
Li 60.576578 48.213741 46.443685                                                
Li 44.355495 67.062321 46.700370                                                
Li 50.649079 65.018954 46.663499                                                
Li 50.672996 65.001584 33.528882                                                
Li 40.052331 64.843903 39.929585                                                
Li 60.421330 53.308463 46.334457                                                
Li 50.684193 36.032292 39.596113                                                
Li 30.706142 42.352887 46.706732                                                
Li 60.848943 47.985239 33.220151                                                
Li 55.055829 62.399381 33.540003                                                
Li 60.738738 53.133194 33.344167                                                
Li 60.484192 43.048959 46.464606                                                
Li 30.240923 52.995992 39.812016                                                
Li 55.413768 62.887145 46.535409                                                
Li 55.181987 38.371144 39.459287                                                
Li 31.458993 59.998298 32.921732                                                
Li 44.067268 52.921875 40.015286                                                
Li 59.404244 41.368403 33.205065                                                
Li 51.156647 46.657348 39.796979                                                
Li 34.580137 36.587703 39.851270                                                
Li 43.196772 46.315915 39.800663                                                
Li 59.575296 59.915270 33.630671                                                
Li 50.852903 53.752199 39.875362                                                
Li 38.667002 63.771692 54.106612                                                
Li 38.993760 66.739320 46.492560                                                
%ENDBLOCK POSITIONS_ABS                                                         

--------------------------------------------------------------------------------
-------------------------------- END INPUT FILE --------------------------------
--------------------------------------------------------------------------------


 
<<<<<<<<<<<<<<<<<<<<<<<<<<<<<<<<< Full system >>>>>>>>>>>>>>>>>>>>>>>>>>>>>>>>>>
<<<<<<<<<<<<<<<<<<<<<<<<<<< PAW Dataset information >>>>>>>>>>>>>>>>>>>>>>>>>>>
File: ~/pp/paw/c_pbe_abinit.paw; rc = 1.25 bohr; shape type =  3; rshape = 1.25 bohr;
  Atomic number:  6;  ionic charge:  4.000000
    Partial Wave 1: l = 0
    Partial Wave 2: l = 0
    Partial Wave 3: l = 1
    Partial Wave 4: l = 1
  Core charge supplied for Nonlinear Core Corrections
File: ~/pp/paw/h_pbe_abinit.paw; rc = 0.90 bohr; shape type =  3; rshape = 0.90 bohr;
  Atomic number:  1;  ionic charge:  1.000000
    Partial Wave 1: l = 0
    Partial Wave 2: l = 0
File: ~/pp/paw/li_pbe_abinit.paw; rc = 1.42 bohr; shape type =  3; rshape = 1.42 bohr;
  Atomic number:  3;  ionic charge:  3.000000
    Partial Wave 1: l = 0
    Partial Wave 2: l = 0
    Partial Wave 3: l = 0
    Partial Wave 4: l = 1
    Partial Wave 5: l = 1
<<<<<<<<<<<<<<<<<<<<<<<<<<<<<<<<<<<<<<< >>>>>>>>>>>>>>>>>>>>>>>>>>>>>>>>>>>>>>>

-------------------------- Atom counting information ---------------------------
Symbol    Natoms    Nngwfs    Nprojs
  C        484      1936      3872
  H        108       108       216
  Li        42       210       378
.......   ......    ......    ......
Totals:    634      2254      4466
--------------------------------------------------------------------------------

=============================== PSINC grid sizes ===============================
                      Simulation cell:  189 x 189 x 189
                              FFT-box:  117 x 117 x 117
                                  PPD:    7 x   7 x   1
Grid space d1=  0.499927596032a0 (KE cutoff=  30.39413Eh = 827.06648eV)
Grid space d2=  0.499927596032a0 (KE cutoff=  30.39413Eh = 827.06648eV)
Grid space d3=  0.499927596032a0 (KE cutoff=  30.39413Eh = 827.06648eV)
================================================================================
  
WARNING in cell_grid_distribute:
Average of less than one 23-slab per node, so workload cannot be
equally balanced between nodes.

********************* Fourier parallelisation information **********************
       Coarse grid (whole simulation cell) dimensions:    189   189   189
          Real-space ('12') slabs/node (min max mean):      1     2     1
         Recip-space ('23') slabs/node (min max mean):      0     1     0
********************************************************************************

********************* Fourier parallelisation information **********************
       Double grid (whole simulation cell) dimensions:    378   378   378
          Real-space ('12') slabs/node (min max mean):      2     3     2
         Recip-space ('23') slabs/node (min max mean):      1     2     1
********************************************************************************

Atom SCF Calculation for C  : Z (AE atom) =   6 : Z (PS atom) =   4
Config String: 2s2 2p2
Orbitals (num,occ):  2     2.00 2.00
Orbitals   (num,l):  2        0    1
Real-space Grid (nr,dr,rmax): 1377    0.0065406977    9.0000000000
Spherical Bessel Basis (nsws,lmax,cutoff):   37    2  183.0099912382
Confining potential (l,width,scale):  0    3.0000000000  100.0000000000
Confining potential (l,width,scale):  1    3.0000000000  100.0000000000
  1         -5.4350126632   -1.2715272878    4.5135247139   -1.5681949477
  2         -5.3876836850   -1.3562195125    4.4235426751   -1.5380057521
  3         -5.3928844498   -1.3758175853    4.4021699684   -1.5318377811
  4         -5.3988962903   -1.3800385428    4.3975423583   -1.5307324410
  5         -5.4018428823   -1.3823489590    4.3950111904   -1.5301555648
  6         -5.4033571720   -1.3835805046    4.3936635548   -1.5298576834
  7         -5.4041480647   -1.3842324820    4.3929512000   -1.5297032953
  8         -5.4045641108   -1.3845769138    4.3925755232   -1.5296229456
  9         -5.4047838258   -1.3847587737    4.3923775340   -1.5295810042
 10         -5.4049001347   -1.3848548089    4.3922731819   -1.5295590658
 11         -5.4049618018   -1.3849055476    4.3922181562   -1.5295475724
 12         -5.4049945351   -1.3849323732    4.3921891206   -1.5295415432
 13         -5.4050119258   -1.3849465673    4.3921737867   -1.5295383767
 14         -5.4050211723   -1.3849540841    4.3921656816   -1.5295367119
 15         -5.4050260920   -1.3849580684    4.3921613935   -1.5295358358
 16         -5.4050287113   -1.3849601822    4.3921591228   -1.5295353742
 17         -5.4050301068   -1.3849613045    4.3921579192   -1.5295351307
 18         -5.4050308507   -1.3849619010    4.3921572806   -1.5295350022
 19         -5.4050312476   -1.3849622183    4.3921569415   -1.5295349343
 20         -5.4050314594   -1.3849623873    4.3921567612   -1.5295348984
 21         -5.4050315725   -1.3849624773    4.3921566653   -1.5295348794
 22         -5.4050316330   -1.3849625253    4.3921566143   -1.5295348693
Atom SCF converged after  22 iterations to a total energy of     -5.40503163

Atom SCF Calculation for H  : Z (AE atom) =   1 : Z (PS atom) =   1
Config String: 1s1
Orbitals (num,occ):  1     1.00
Orbitals   (num,l):  1        0
Real-space Grid (nr,dr,rmax): 1377    0.0065406977    9.0000000000
Spherical Bessel Basis (nsws,lmax,cutoff):   37    1  183.0099912382
Confining potential (l,width,scale):  0    3.0000000000  100.0000000000
  1         -0.3605254152   -0.2399954029    0.2820952946   -0.2424203210
  2         -0.4156854077   -0.2398249290    0.2871789324   -0.2464796203
  3         -0.4412552402   -0.2379720642    0.2899127187   -0.2499011370
  4         -0.4517265951   -0.2371980236    0.2908966173   -0.2514141636
  5         -0.4557775773   -0.2369735141    0.2911607883   -0.2519713623
  6         -0.4573363459   -0.2369240355    0.2912108681   -0.2521663171
  7         -0.4579443228   -0.2369187864    0.2912112833   -0.2522344454
  8         -0.4581858602   -0.2369215483    0.2912049187   -0.2522587615
  9         -0.4582834939   -0.2369242589    0.2912002081   -0.2522677042
 10         -0.4583235236   -0.2369258837    0.2911975892   -0.2522710965
 11         -0.4583401154   -0.2369267223    0.2911962825   -0.2522724192
 12         -0.4583470483   -0.2369271266    0.2911956643   -0.2522729467
 13         -0.4583499624   -0.2369273145    0.2911953803   -0.2522731607
 14         -0.4583511926   -0.2369274000    0.2911952521   -0.2522732486
 15         -0.4583517136   -0.2369274385    0.2911951948   -0.2522732850
 16         -0.4583519349   -0.2369274556    0.2911951693   -0.2522733002
 17         -0.4583520290   -0.2369274632    0.2911951581   -0.2522733066
Atom SCF converged after  17 iterations to a total energy of     -0.45835203

Atom SCF Calculation for Li : Z (AE atom) =   3 : Z (PS atom) =   3
Config String: 1s2 2s1 2p0
Orbitals (num,occ):  3     2.00 1.00 0.00
Orbitals   (num,l):  3        0    0    1
Real-space Grid (nr,dr,rmax): 1377    0.0065406977    9.0000000000
Spherical Bessel Basis (nsws,lmax,cutoff):   37    2  183.0099912382
Confining potential (l,width,scale):  0    3.0000000000  100.0000000000
Confining potential (l,width,scale):  1    3.0000000000  100.0000000000
  1         -6.0640888065   -4.6655401716    2.5388576516   -0.9989538799
  2         -6.9627542978   -4.0954079129    2.9808988108   -1.1965571426
  3         -7.2692687601   -3.8889996707    3.2029735703   -1.3193883705
  4         -7.3784440298   -3.8322099748    3.2868571989   -1.3711018151
  5         -7.4170278248   -3.8191968371    3.3144974220   -1.3911175539
  6         -7.4303549880   -3.8172386945    3.3228486489   -1.3986896266
  7         -7.4348052089   -3.8175483495    3.3251259310   -1.4015352495
  8         -7.4362242328   -3.8180607346    3.3256233205   -1.4026016384
  9         -7.4366459715   -3.8184145665    3.3256561549   -1.4029998726
 10         -7.4367560626   -3.8186169740    3.3256001574   -1.4031477379
 11         -7.4367765260   -3.8187239825    3.3255481763   -1.4032021548
 12         -7.4367751741   -3.8187782620    3.3255144587   -1.4032219192
 13         -7.4367707398   -3.8188051288    3.3254952336   -1.4032289600
 14         -7.4367680349   -3.8188156035    3.3254870176   -1.4032309087
 15         -7.4367661982   -3.8188217406    3.3254819951   -1.4032318132
 16         -7.4367650112   -3.8188253257    3.3254789583   -1.4032322224
 17         -7.4367642682   -3.8188274151    3.3254771375   -1.4032324006
 18         -7.4367638134   -3.8188286307    3.3254760529   -1.4032324736
 19         -7.4367635392   -3.8188293370    3.3254754103   -1.4032325004
 20         -7.4367633760   -3.8188297469    3.3254750310   -1.4032325080
 21         -7.4367632796   -3.8188299846    3.3254748079   -1.4032325082
Atom SCF converged after  21 iterations to a total energy of     -7.43676328

Determining parallel strategy ...
... using space-filling curve
... NGWF load balancing: max     16;  min     12;  average     14
... Projector load balancing: max     32;  min     24;  average     28
... done
Calculating Ewald energy ...
              Ewald: real-space energy =   36862.212360
        Ewald: reciprocal-space energy =   36798.271585
         Ewald: (sum_charge)**2 Energy =    2900.619784
         Ewald: (sum_charge**2) Energy =     255.297050
                          Ewald Energy =   70504.567111
======================= Empirical dispersion information =======================
Model : Grimme D2
Dispersion Correction Energy: -0.24251667E+01 Hartree
================================================================================
Basis initialisation ...... NGWF spheres initialised
... Projector spheres initialised
... NGWF tight boxes initialised
... Projector tight boxes initialised
... Tight-boxes gathered
... NGWF basis size (local,global):     283686  45463978
... PAW projector initialisation
... done

============================= Charge Augmentation ==============================
                           Aug box size:   13 x  13 x  13
================================================================================

========================== Sparse matrix information ===========================
                        Overlap matrix filling:  37.05%
                        Density kernel filling: 100.00%
              NGWF-Proj overlap matrix filling:  10.41%
                    Aug Overlap matrix filling:  41.73%
                    Hamiltonian matrix filling:  41.73%
                  NGWF diagonal matrix filling:   0.18%
                             KS matrix filling: 100.00% 
                           KSKS matrix filling: 100.00% 
================================================================================

Sparse matrix initialisation ... done
NGWF initialisation ...... done
============ Calculation of NGWF S^-1 using Hotelling algorithm ================ 
         Iteration  |  Frobenius norm and Maximum abs value    (of I-S*S_n^-1)   
               1       0.47197868E+02     0.99711887E+00
               2       0.46933013E+02     0.99424888E+00
               3       0.46440186E+02     0.98854175E+00
               4       0.45579109E+02     0.97725555E+00
               5       0.44219703E+02     0.95517133E+00
               6       0.42332335E+02     0.91280267E+00
               7       0.39968027E+02     0.83441394E+00
               8       0.37155003E+02     0.78850351E+00
               9       0.34038688E+02     0.76793078E+00
              10       0.30944459E+02     0.74893839E+00
              11       0.27838802E+02     0.73435331E+00
              12       0.24120036E+02     0.70872570E+00
              13       0.19275143E+02     0.66180452E+00
              14       0.13352149E+02     0.57981566E+00
              15       0.75806434E+01     0.47496329E+00
              16       0.38867756E+01     0.41567245E+00
              17       0.23860478E+01     0.32791011E+00
              18       0.15023669E+01     0.22216444E+00
              19       0.70944966E+00     0.12501003E+00
              20       0.18546601E+00     0.39840169E-01
              21       0.16407486E-01     0.40930227E-02
              22       0.16644809E-03     0.43688270E-04
              23       0.19312172E-07     0.49963447E-08
              24       0.68572709E-13     0.71054274E-14
================================================================================
Calculating core density ...
================================= Core Density =================================
               Core den box size:   21 x  21 x  21
================================================================================
 ... done
Up spin density kernel initialisation ...... done

Writing density kernel to file "42/592nano.dkn" ... done

>>> Optimising kernel for current NGWFs:

--------------------------- Ensemble-DFT optimisation --------------------------
Running ScaLAPACK on  160 processor(s).

--------------------------------------------------------------------------------
  Iter                              Commutator    Free_energy(A=E-TS)     DeltaA
#    0                          0.001265029413   -3134.03037831610845  -3.13E+03

Step                       =       0.381966011250
Energy                     =   -3133.991180254084
Entropy (-TS)              =      -0.039198061951
Free energy (A=E-TS)       =   -3134.030378316108
Est. 0K Energy 0.5*(E+A)   =   -3134.010779285096
Residual Non-orthogonality =       0.000000000000
Residual N_electrons       =      -0.000000000073

Spin          Integrated_Ne            Fermi_level     Delta_Fermi_level
   1      2169.999999999679        -0.228565200756             -2.29E-01

                           Spin 1          
     Orb      H-eigenvalues     Occupancies
       1 |    -1.8869581157    1.0000000000 | 
                          ------
    1081 |    -0.2346657194    0.8728494752 | 
    1082 |    -0.2340941305    0.8514346734 | 
    1083 |    -0.2316553053    0.7262696508 | 
    1084 |    -0.2295146341    0.5743954239 | 
    1085 |    -0.2284630931    0.4919399325 | 
                 - Gap at zero temperature -
    1086 |    -0.2282034528    0.4714732659 | 
    1087 |    -0.2274981368    0.4165500203 | 
    1088 |    -0.2263695015    0.3332889293 | 
    1089 |    -0.2235886533    0.1720070096 | 
    1090 |    -0.2223970197    0.1247980733 | 
                          ------
    2254 |     0.5549230784    0.0000000000 | 

                       |  Abs_value |  Threshold | Converged
     Delta_Free_energy |   3.13E+03 |   1.00E-06 |        No
     Delta_Energy      |   3.13E+03 |   1.00E-04 |        No
     Delta_Entropy     |   3.92E-02 |   1.00E-04 |        No
     Commutator        |   1.27E-03 |   1.00E-05 |        No
     Delta_Fermi_level |   2.29E-01 |   1.00E-03 |        No

  Line search of the free energy minimum:
  Step_type        Step             Free_energy   Predicted_free_energy
.   Initial    0.000000    -3134.03037831610845
.    Trial1    0.381966    -3133.79456317422182
.    Trial2    0.145898    -3134.86728643223842
. Quadratic    0.179514    -3134.92735567078944    -3134.89770026766610

--------------------------------------------------------------------------------
  Iter                              Commutator    Free_energy(A=E-TS)     DeltaA
#    1                          0.000822405432   -3134.92735567078944  -8.97E-01

Step                       =       0.179513823976
Energy                     =   -3134.888247632729
Entropy (-TS)              =      -0.039108038292
Free energy (A=E-TS)       =   -3134.927355670789
Est. 0K Energy 0.5*(E+A)   =   -3134.907801651759
Residual Non-orthogonality =       0.000000000000
Residual N_electrons       =       0.000000000231

Spin          Integrated_Ne            Fermi_level     Delta_Fermi_level
   1      2170.000000001097        -0.210872699253              1.77E-02

                           Spin 1          
     Orb      H-eigenvalues     Occupancies
       1 |    -1.9128271016    1.0000000000 | 
                          ------
    1081 |    -0.2167130734    0.8634499085 | 
    1082 |    -0.2159936098    0.8343886798 | 
    1083 |    -0.2149555958    0.7840247571 | 
    1084 |    -0.2141452425    0.7375720974 | 
    1085 |    -0.2109745899    0.5080429382 | 
                 - Gap at zero temperature -
    1086 |    -0.2102117875    0.4480136921 | 
    1087 |    -0.2085810629    0.3265915902 | 
    1088 |    -0.2075643319    0.2602441773 | 
    1089 |    -0.2069492319    0.2246217553 | 
    1090 |    -0.2025188109    0.0667356361 | 
                          ------
    2254 |     0.5740437264    0.0000000000 | 

                       |  Abs_value |  Threshold | Converged
     Delta_Free_energy |   8.97E-01 |   1.00E-06 |        No
     Delta_Energy      |   8.97E-01 |   1.00E-04 |        No
[...]
 C     4 -- C    10       -0.08      5.41539
 C    39 -- C   516       -0.08      5.41552
 C   272 -- C   294       -0.09      5.41553
 C    23 -- C   125       -0.08      5.41627
 C   188 -- C   286       -0.08      5.41628
 C    96 -- C   126       -0.09      5.41640
 C   279 -- C   383       -0.08      5.41651
 C    73 -- C    79       -0.08      5.41674
 C   406 -- C   440       -0.08      5.41691
 C   212 -- C   230       -0.08      5.41705
 C   222 -- C   300       -0.09      5.41711
 C    49 -- C   391       -0.08      5.41767
 C   256 -- C   290       -0.09      5.41770
 C   247 -- C   355       -0.08      5.41794
 C    34 -- C    52       -0.08      5.41803
 C    94 -- C   128       -0.09      5.41808
 C    27 -- C    29       -0.08      5.41830
 C   175 -- C   256       -0.06      5.41843
 C   246 -- C   448       -0.08      5.41848
 C    23 -- C    61       -0.08      5.41863
 C    59 -- C    97       -0.09      5.41880
 C    66 -- C   100       -0.09      5.41881
 C   258 -- C   288       -0.09      5.41913
 C   427 -- C   445       -0.07      5.41915
 C    35 -- C   497       -0.08      5.41922
 C   470 -- C   480       -0.08      5.41934
 C    70 -- C   104       -0.08      5.41941
 H   426 -- Li  600       -0.03      5.41942
 C   185 -- C   299       -0.09      5.41945
 C    77 -- C    91       -0.08      5.41953
 C   420 -- C   444       -0.08      5.41982
 C   408 -- C   416       -0.09      5.41998
 C   262 -- C   292       -0.09      5.42009
 C    94 -- C   116       -0.09      5.42012
 C   215 -- C   225       -0.09      5.42015
 C   227 -- C   309       -0.09      5.42017
 C    37 -- C   367       -0.09      5.42057
 C   470 -- C   547       -0.09      5.42060
 C    48 -- C   126       -0.09      5.42073
 C    90 -- C   124       -0.09      5.42076
 C     6 -- C   246       -0.09      5.42094
 C    75 -- C    77       -0.08      5.42122
 C   244 -- C   450       -0.08      5.42130
 C    94 -- C   568       -0.07      5.42134
 C   109 -- C   123       -0.09      5.42154
 C    80 -- C   538       -0.08      5.42154
 C   237 -- C   275       -0.09      5.42162
 C    19 -- C   117       -0.08      5.42163
 C    38 -- C    56       -0.08      5.42172
 C   229 -- C   235       -0.09      5.42178
 C    35 -- C    41       -0.09      5.42191
 C     2 -- C   348       -0.09      5.42191
 C    33 -- C    43       -0.09      5.42191
 C    44 -- C   122       -0.09      5.42219
 C   231 -- C   241       -0.08      5.42232
 C   342 -- C   388       -0.08      5.42250
 C    88 -- C   118       -0.09      5.42252
 C   244 -- C   278       -0.08      5.42282
 C   111 -- C   121       -0.09      5.42318
 C   189 -- C   191       -0.08      5.42336
 C    72 -- C   102       -0.08      5.42346
 C   186 -- C   212       -0.08      5.42363
 C   249 -- C   353       -0.08      5.42368
 C    14 -- C   112       -0.08      5.42371
 C    88 -- C   547       -0.08      5.42379
 C    65 -- C   513       -0.06      5.42388
 C    45 -- Li  632       -0.08      5.42406
 C    53 -- C   395       -0.08      5.42408
 C    36 -- C    50       -0.09      5.42417
 C    21 -- C    63       -0.08      5.42435
 C    99 -- C   121       -0.09      5.42436
 C   242 -- C   328       -0.08      5.42492
 C   246 -- C   276       -0.08      5.42505
 C    29 -- C    47       -0.08      5.42506
 C     6 -- C   352       -0.08      5.42515
 C   285 -- C   287       -0.08      5.42523
 C   205 -- C   263       -0.08      5.42551
 C   202 -- C   216       -0.08      5.42680
 C    85 -- C    95       -0.08      5.42695
 C   302 -- C   346       -0.08      5.42699
 H   587 -- Li  616       -0.02      5.42705
 C    65 -- C    91       -0.08      5.42706
 C    14 -- C   450       -0.08      5.42709
 C    56 -- C   342       -0.09      5.42712
 C   182 -- C   220       -0.08      5.42714
 C   222 -- C   374       -0.09      5.42716
 C    61 -- C   387       -0.08      5.42748
 C    60 -- C   362       -0.09      5.42778
 C    97 -- C   123       -0.09      5.42783
 C   181 -- C   287       -0.08      5.42785
 C   416 -- C   476       -0.08      5.42820
 C    29 -- C   355       -0.08      5.42884
 C    19 -- C    21       -0.08      5.42904
 C    38 -- C   104       -0.08      5.42950
 C   205 -- C   207       -0.09      5.43042
 C   189 -- C   255       -0.08      5.43065
 C    40 -- C   102       -0.08      5.43087
 C    17 -- C   453       -0.07      5.43089
 C    45 -- C   359       -0.08      5.43130
 C    80 -- C   556       -0.07      5.43136
 C    17 -- C   281       -0.08      5.43145
 C   357 -- C   367       -0.08      5.43221
 C   224 -- C   242       -0.08      5.43246
 C    87 -- C    93       -0.08      5.43265
 C    34 -- C   100       -0.08      5.43297
 C   204 -- C   294       -0.07      5.43300
 C    25 -- C   249       -0.07      5.43314
 C     8 -- C   350       -0.08      5.43342
 C   413 -- C   441       -0.07      5.43350
 H   583 -- Li  600       -0.00      5.43361
 C   339 -- C   497       -0.09      5.43366
 C   385 -- C   395       -0.08      5.43385
 C    79 -- C    89       -0.08      5.43409
 C    16 -- C   110       -0.08      5.43467
 C    39 -- C   506       -0.07      5.43542
 C     4 -- C    42       -0.08      5.43676
 C    31 -- C    45       -0.08      5.43703
 C   338 -- C   380       -0.07      5.43739
 C   440 -- C   488       -0.07      5.43910
 C    51 -- C   521       -0.08      5.43922
 C   252 -- C   406       -0.09      5.43948
 C    36 -- C    98       -0.08      5.43975
 C    76 -- C   564       -0.08      5.44072
 C   445 -- C   467       -0.06      5.44101
 C   343 -- C   365       -0.07      5.44123
 C   293 -- C   295       -0.08      5.44237
 C   103 -- C   525       -0.08      5.44250
 C    67 -- C    89       -0.08      5.44404
 H   177 -- Li  622       -0.02      5.44455
 C     2 -- C   270       -0.08      5.44472
 C   319 -- C   361       -0.07      5.44537
 H   472 -- Li  614       -0.02      5.44661
 C   444 -- C   492       -0.07      5.44695
 C   377 -- C   391       -0.08      5.44733
 H   581 -- Li  610       -0.02      5.44740
 C   368 -- C   394       -0.07      5.44825
 C   409 -- C   485       -0.07      5.44871
 C   206 -- C   292       -0.07      5.44905
 C   198 -- C   204       -0.08      5.44935
 H   505 -- Li  621       -0.02      5.44942
 C   316 -- C   390       -0.08      5.44966
 C   253 -- C   413       -0.08      5.44989
 C   234 -- Li  608       -0.09      5.45031
 C   183 -- C   237       -0.07      5.45098
 C    84 -- C   567       -0.08      5.45134
 C    96 -- C   567       -0.07      5.45151
 C   190 -- C   284       -0.07      5.45151
 C    99 -- C   521       -0.07      5.45230
 Li  600 -- Li  634       -0.14      5.45248
 C   333 -- C   365       -0.07      5.45377
 C   423 -- C   489       -0.08      5.45398
 C   185 -- C   235       -0.07      5.45541
 C   197 -- C   199       -0.08      5.45588
 C   343 -- C   506       -0.08      5.45596
 C   430 -- C   480       -0.07      5.45650
 C   220 -- C   238       -0.08      5.45709
 H   165 -- Li  602       -0.02      5.45747
 C    88 -- C   560       -0.07      5.45896
 C   233 -- C   239       -0.07      5.45922
 C    55 -- C   525       -0.07      5.45968
 C    68 -- C   556       -0.08      5.46088
 C   260 -- C   420       -0.08      5.46185
 C    83 -- C   467       -0.08      5.46305
 C    35 -- C   511       -0.07      5.46308
 C   481 -- C   489       -0.06      5.46422
 C    92 -- C   564       -0.07      5.46498
 C   364 -- C   390       -0.07      5.46573
 C   199 -- C   241       -0.06      5.46738
 H   412 -- Li  606       -0.02      5.46744
 C    75 -- C   463       -0.08      5.46806
 C   234 -- C   332       -0.08      5.47098
 C    72 -- C   560       -0.08      5.47551
 H   586 -- Li  618       -0.02      5.47608
 C   252 -- C   286       -0.06      5.47791
 C    52 -- C   338       -0.08      5.48009
 C   210 -- Li  604       -0.06      5.48444
 H   401 -- Li  625       -0.02      5.48445
 C   181 -- C   183       -0.08      5.48557
 C   355 -- Li  630       -0.05      5.48605
 C    72 -- Li  615       -0.09      5.48757
 C   201 -- C   239       -0.06      5.48957
 C   193 -- Li  594       -0.08      5.49219
 Li  594 -- Li  607       -0.16      5.49351
 C   254 -- C   284       -0.06      5.50123
 C    42 -- Li  632       -0.06      5.50474
 H   586 -- Li  620       -0.02      5.51073
 H   509 -- Li  610       -0.02      5.51232
 H   557 -- Li  619       -0.02      5.51386
 H   131 -- Li  617       -0.02      5.51484
 C    67 -- C   511       -0.07      5.51655
 H   552 -- Li  623       -0.02      5.51831
 H   571 -- Li  631       -0.02      5.51915
 H   370 -- Li  627       -0.03      5.52208
 H   398 -- Li  627       -0.02      5.52394
 H   174 -- Li  607       -0.02      5.53097
 C   488 -- Li  606       -0.07      5.53141
 H   147 -- Li  604       -0.02      5.53668
 C   445 -- Li  634       -0.04      5.54413
 C   203 -- Li  617       -0.06      5.56380
 C    19 -- Li  632       -0.05      5.56594
 H   591 -- Li  607       -0.02      5.56830
 C   469 -- Li  634       -0.03      5.57196
 H   132 -- Li  617       -0.02      5.58183
 C   205 -- Li  622       -0.06      5.59252
 C    75 -- Li  613       -0.08      5.59560
 C   249 -- Li  630       -0.05      5.59933
 H   369 -- Li  624       -0.02      5.59969
 H   371 -- Li  609       -0.02      5.60452
 C   169 -- Li  625       -0.05      5.61030
 H   146 -- Li  604       -0.02      5.61654
 H   532 -- Li  611       -0.02      5.61660
 C    83 -- Li  612       -0.04      5.62158
 H   571 -- Li  597       -0.01      5.62944
 C   198 -- Li  604       -0.04      5.63446
 C     4 -- Li  632       -0.05      5.64017
 H   572 -- Li  631       -0.02      5.64624
 H   573 -- Li  597       -0.01      5.65371
 H   400 -- Li  621       -0.01      5.65751
 C   570 -- C   575       -0.03      5.65932
 C   513 -- Li  631       -0.04      5.66016
 C   545 -- Li  611       -0.05      5.66031
 H   590 -- Li  619       -0.01      5.66186
 H   483 -- Li  606       -0.02      5.66377
==================================================


=================== Orbital energy and occupancy information ===================

      Total number of orbitals:    2254
        Occupancy sum (kernel):    1085.000000001
   Occupancy sum (eigenvalues):    1085.000000001
                 HOMO-LUMO gap:       0.000622691 Eh
                 Mid-gap level:      -0.062062181 Eh

                        Orbital | Energy (Eh) | Occupancy
                            1    -1.878623804   1.0000000
                        .......   ...........   .........
                         1077    -0.081539697   0.9961048
                         1078    -0.079268550   0.9921352
                         1079    -0.072877741   0.9433210
                         1080    -0.072272132   0.9325550
                         1081    -0.070569146   0.8890823
                         1082    -0.069041246   0.8322572
                         1083    -0.066485581   0.6903902
                         1084    -0.065595200   0.6273309
                         1085    -0.063940846   0.5007041
                         1086    -0.062373527   0.3753698
                        ....... -- gap at 0K -- .........
                         1087    -0.061750835   0.3317364
                         1088    -0.060805060   0.2690528
                         1089    -0.059578212   0.2001917
                         1090    -0.058792264   0.1687965
                         1091    -0.057895074   0.1270228
                         1092    -0.052669276   0.0270900
                         1093    -0.051907413   0.0213352
                         1094    -0.050915554   0.0156322
                         1095    -0.050444098   0.0136128
                         1096    -0.049593101   0.0102388
                        .......   ...........   .........
                         2254     0.782296429   0.0000000

================================================================================

===================== Writing canonical molecular orbitals =====================
| Orbital  Energy (eV)  Norm     |
| HOMO     -1.69727003  1.000000 | Writing "42/592nano_HOMO.cube" ... done
Writing "42/592nano_HOMO.dx" ... done
| LUMO     -1.68032573  1.000000 | Writing "42/592nano_LUMO.cube" ... done
Writing "42/592nano_LUMO.dx" ... done
================================================================================

================== Local Density of States (LDOS) calculation ==================
Writing "42/592nano_LDOS.txt" ...  done
================================================================================
 
===================== Density of States (DOS) calculation ======================
Writing "42/592nano_DOS.txt" ...  done
================================================================================
 
Writing bands to file "42/592nano.val_bands" ... done
 
================ Projected Density of States (pDOS) calculation ================
 
Constructing AM resolved functions  ...... done
Writing NGWF plot files in formats: CUBE DX ...  done
 
Performing overlap integrals ...  done
 
Computing pDOS weights ...  done
 
All bands spilling parameter =   3.25 %
Occupancy-weighted spilling parameter =   0.84 %
 
 => Outputting data for OptaDOS <=
 
Writing pDOS weights to file "42/592nano.val_pdos_bin" ... done
 
Writing band gradients to file "42/592nano.val_dome_bin" ... done
 
Writing Castep output cell file to "42/592nano-out.cell" ... done
 
 => Computing Gaussian smeared pDOS <= 
Writing "42/592nano_PDOS.txt" ...  done
 
 => Computing Occupancy-weighted Gaussian smeared pDOS <= 
Writing "42/592nano_occ_PDOS.txt" ...  done
  => Band centres: 
 S band centre of group 1:  -18.886266 eV
 P band centre of group 1:   -8.295535 eV
  Band centres done. <=
  => Integrated number of electrons in each AM band: 
 S num electrons of group 1:  614.266013
 P num electrons of group 1: 1537.613502
  Integrated number of electrons done. <=
================================================================================

------------------------------ TIMING INFORMATION ------------------------------
AVERAGE TIME:    9781.890s on    160 node(s)                                    
TOTAL TIME:      9781.892s on    160 node(s)                                    
================= AVERAGE TIMINGS FROM ALL NODES (CUMULATIVE) ==================
|| TAG                                    #calls    cpu time   %total  Gflops ||
|| work_imbalance                       :     1        0.00s   0.000%  ------ ||
|| paw_sphere_density_on_grid           :     1        0.01s   0.000%  ------ ||
|| sparse_set_to_garbage                :   159        0.01s   0.000%  ------ ||
|| paw_tcore_density                    :     1        0.01s   0.000%  ------ ||
|| basis_extract_function_from_box      :   394        0.02s   0.000%  ------ ||
|| paw_dij_hartree                      :  1090        0.04s   0.000%  ------ ||
|| ngwfs_initialise_from_radial         :     2        0.04s   0.000%  ------ ||
|| ewald_calculate_energy               :     1        0.13s   0.001%  ------ ||
|| density_init_guess_real              :     1        0.14s   0.001%  ------ ||
|| paw_tcore_hartree_on_grid            :     1        0.39s   0.004%  ------ ||
|| paw_dataset_init                     :     3        0.39s   0.004%  ------ ||
|| pseudo_make_structure_factor         :     1        0.50s   0.005%  ------ ||
|| sparse_init                          :     1        1.05s   0.011%  ------ ||
|| dense_normal_eigensolve              :     1        1.06s   0.011%  ------ ||
|| restart_kernel_write                 :    15        1.19s   0.012%  ------ ||
|| paw_species_calc_proj_prec_mat       :     1        2.20s   0.023%  ------ ||
|| sparse_embed_hotelling_invert_embed  :    27        5.81s   0.059%  ------ ||
|| fourier_apply_box_pair               :   591        6.75s   0.069%  2.314k ||
|| sw_init                              :     1        7.55s   0.077%  ------ ||
|| ngwf_gradient_coeffs                 :    14        8.74s   0.089%  ------ ||
|| augmentation_screen_dij              :   817       14.95s   0.153%  ------ ||
|| projectors_init_fftbox_recip         :    57       21.61s   0.221%  ------ ||
|| basis_copy_function_to_box           : 15876       22.47s   0.230%  ------ ||
|| paw_dij_xc                           :  1090       23.08s   0.236%  ------ ||
|| integrals_kinetic                    :    27       37.62s   0.385%  ------ ||
|| hartree_on_grid                      :   812       39.45s   0.403%  ------ ||
|| projectors_func_ovlp_box             :    28       40.66s   0.416%  ------ ||
|| hamiltonian_energy_components        :     3       44.32s   0.453%  ------ ||
|| function_ops_brappd_ketppd           :    56       48.75s   0.498%  ------ ||
|| eigenstates_pdos                     :     1       57.22s   0.585%  ------ ||
|| sparse_trace                         : 10198       65.80s   0.673%  ------ ||
|| aug_nonlocal_mat                     :  1076       68.92s   0.705%  ------ ||
|| augmentation_density_on_grid         :   812       73.99s   0.756%  ------ ||
|| fourier_apply_cell_forward           :  4056       82.81s   0.847% 170.483 ||
|| fourier_apply_cell_backward          :  4057       90.98s   0.930% 155.212 ||
|| basis_dot_function_with_box          : 3.555M      97.65s   0.998%  ------ ||
|| eigenstates_calculate                :     1      108.27s   1.107%  ------ ||
|| restart_ngwfs_tightbox_output        :    13      157.53s   1.610%  ------ ||
|| xc_energy_potential                  :   811      157.74s   1.613%  ------ ||
|| sparse_product                       :  8929      260.99s   2.668%  ------ ||
|| basis_add_function_to_box            : 10.21M     267.49s   2.735%  ------ ||
|| dense_eigensolve                     :   781      268.59s   2.746%  ------ ||
|| projectors_gradient_batch            :    14      323.51s   3.307%  ------ ||
|| integrals_locpot_mat_els_batch       :   273      338.94s   3.465%  ------ ||
|| cell_grid_extract_box_real           :  8689      371.78s   3.801%  ------ ||
|| cell_grid_deposit_box_real           : 29279      418.35s   4.277%  ------ ||
|| projectors_grad_precond_batch        :    14      460.30s   4.706%  ------ ||
|| density_fftbox_deposit_to_cell       : 12992      753.64s   7.704%  ------ ||
|| ngwf_gradient_build_batch            :    14      866.77s   8.861%  ------ ||
|| properties_calculate                 :     1      904.40s   9.246%  ------ ||
|| density_batch_row_sums               :   812      913.40s   9.338%  ------ ||
|| ngwf_gradient_batch                  :    14      942.22s   9.632%  ------ ||
|| ngwf_gradient_lnv                    :    14      956.42s   9.778%  ------ ||
|| potential_apply_to_ngwf_batch        :   273      961.14s   9.826%  ------ ||
|| edft_diag_ngwf_ham                   :   780      985.39s  10.074%  ------ ||
|| fourier_apply_box                    : 49728     1085.02s  11.092%  3.963k ||
|| density_fftbox_interpolate_multiply  : 12992     1291.92s  13.207%  ------ ||
|| integrals_locpot_dbl_grid            :   273     1312.87s  13.421%  ------ ||
|| edft_apply_smearing_operator         :   780     1673.20s  17.105%  ------ ||
|| density_batch_interp_deposit         :   812     2514.50s  25.706%  ------ ||
|| density_on_dbl_grid                  :   812     3496.86s  35.748%  ------ ||
|| hamiltonian_lhxc_calculate           :   807     3872.06s  39.584%  ------ ||
|| edft_calculate                       :    14     7023.82s  71.804%  ------ ||
|| ngwf_cg_optimise                     :     1     8861.75s  90.593%  ------ ||
|| total_time                           :     1     9781.89s 100.000%  ------ ||
================================================================================
Overhead of generating timer report: 
- 0 ms averaging over threads,
- 25 ms ensuring consistency across MPI ranks,
- 0 ms printing in order.

Job completed: 22-07-2020 11:11 (+0100)

