 +---------------------------------------------------------------+
 |                                                               |
 |        ####### #     # ####### ####### ####### ######         |
 |        #     # ##    # #          #    #       #     #        |
 |        #     # # #   # #          #    #       #     #        |
 |        #     # #  #  # #####      #    #####   ######         |
 |        #     # #   # # #          #    #       #              |
 |        #     # #    ## #          #    #       #              |
 |        ####### #     # #######    #    ####### #              |
 |                                                               |
 |        Linear-Scaling Ab Initio Total Energy Program          |
 |                                                               |
 |          Release for academic collaborators of ODG            |
 |                                             Version 6.1.3.6   |
 |                                                               |
 +---------------------------------------------------------------+
 |                                                               |
 |  Authors:                                                     |
 |  Jacek Dziedzic, Peter D. Haynes, Nicholas D. M. Hine,        |
 |  Arash A. Mostofi, Mike C. Payne and Chris-Kriton Skylaris    |
 |                                                               |
 |  Contributors:                                                |
 |  J. Aarons, L. Andrinopoulos, P. W. Avraam, R. A. Bell,       |
 |  A. Bhandari, G. A. Bramley, R. J. Charlton, S. J. Clark,     |
 |  R. J. Clements, G. C. Constantinescu, F. Corsetti,           |
 |  N. Corsini, O. Dieguez, S. M. M. Dubois, K. K. B. Duff,      |
 |  J. M. Escartin, A. Greco, H. Helal, Q. O. Hill, L. P. Lee,   |
 |  J.-H. Li, E. B. Linscott, G. Moynihan, D. D. O`Regan,        |
 |  O. K. Okan, M. J. S. Phipps, C. J. Pickard,                  |
 |  J. C. A. Prentice, M. I. J. Probert, L. E. Ratcliff,         |
 |  M. Robinson, A. Ruiz Serrano, J. S. Spencer, E. W. Tait,     |
 |  G. Teobaldi, D. Turban, V. Vitale, K. A. Wilkinson,          |
 |  C. Weber, J. C. Womack, N. Yeung and T. J. Zuehlsdorff       |
 |                                                               |
 |                                   Copyright (c) 2004-2021     |
 |                                                               |
 |  Please cite:                                                 |
 |  "The ONETEP linear-scaling density functional theory program"|
 |   J. Chem. Phys. 152(17) 174111 (2020)                        |
 |                                                               |
 |          in all publications arising from your use of ONETEP. |
 |                                                               |
 +---------------------------------------------------------------+
 |                                                               |
 |   ONETEP is based on developments described in the following  |
 |   publications:                                               |
 |                                                               |
 |  "Nonorthogonal generalized Wannier function pseudopotential  |
 |   plane-wave method".                                         |
 |   C.-K. Skylaris, A. A. Mostofi, P. D. Haynes, O. Dieguez,    |
 |   M. C. Payne.                                                |
 |   Phys. Rev. B 66 035119 (2002).                              |
 |                                                               |
 |  "Preconditioned iterative minimization for linear-scaling    |
 |   electronic structure calculations".                         |
 |   A. A. Mostofi, P. D. Haynes, C.-K. Skylaris, M. C. Payne.   |
 |   J. Chem. Phys. 119(17), pp.8842-8848 (2003).                |
 |                                                               |
 |  "Total-energy calculations on a real space grid with         |
 |   localized functions and a plane-wave basis".                |
 |   A. A. Mostofi, C.-K. Skylaris, P. D. Haynes, M. C. Payne.   |
 |   Comput. Phys. Commun. 147, pp.788-802 (2002).               |
 |                                                               |
 |  "Accurate kinetic energy evaluation in electronic structure  |
 |   calculations with localized functions on real space grids"  |
 |   C.-K. Skylaris, A. A. Mostofi, P. D. Haynes, C. J. Pickard, |
 |   M. C. Payne.                                                |
 |   Comput. Phys. Commun. 140, pp.315-322 (2001).               |
 |                                                               |
 |  "Accurate ionic forces and geometry optimization in linear-  |
 |   scaling density-functional theory with local orbitals"      |
 |   N. D. M. Hine, M. Robinson, P. D. Haynes, C.-K. Skylaris,   |
 |   M. C. Payne, and A. A. Mostofi.                             |
 |   Phys. Rev. B 83 195102 (2011).                              |
 |                                                               |
 +---------------------------------------------------------------+

Job started: 25-11-2021 15:46 (-0000)
 
Reading parameters from file "30/592nano.dat" ...... done

If your calculation crashes here, before "Checking processes and threads..."
is displayed, then your stack size is insufficient.
If so, use "ulimit -s unlimited" at runtime.
You can disable this check with "check_stack_size F".

Checking processes and threads...
   Determining the default number of threads...
      No default threads set at compilation time: defaulting to 1.
      OpenMP library call suggests 4 threads.
      Hybrid MPI-OpenMP compilation detected.
      Number of MPI processes > 1.
      OMP_NUM_THREADS environment variable present and
      its value matches the one obtained from the OpenMP library call.
      Using this value as default.
      Default threads: 4
      Default applies to threads_max and threads_num_fftboxes.
      Settings in the input file override this default.
   ... done

   Running with 160 MPI processes.
   There are 16 MPI processes running on the same node as the root process.
   Each MPI process is using: 
               1 threads for simulation cell FFTs.
               1 threads for parallel FFT box operations.
               4 threads for loops over batched FFT box operations.
               4 threads in other parallel regions.
... done

Basic input checks...
Resetting ngwf_cg_rotate to TRUE for EDFT calculations
... done

Reading geometry and species blocks from file "30/592nano.dat" ...    
  Number of PPD points along a3 set to 1.  This is 
  the default value, it may have been provided also in the input file.
... done
 Writing xyz coordinates to file "30/592nano.xyz" ... done


--------------------------------------------------------------------------------
---------------------------------- INPUT FILE ----------------------------------
--------------------------------------------------------------------------------

task : singlepoint                                                              
do_properties : true                                                            
dx_format T                                                                     
edft T                                                                          
edft_spin_fix 3                                                                 
output_detail VERBOSE                                                           
timings_level 3                                                                 
write_xyz T                                                                     
edft_update_scheme: pulay_mix                                                   
edft_ham_diis_size: 10                                                          
edft_trial_step: 0.1                                                            
xc_functional OPTPBE                                                            
cutoff_energy 830 eV                                                            
paw T                                                                           
geom_disp_tol 0.06 bohr                                                         
geom_energy_tol 6E-6 hartree                                                    
geom_force_tol 0.012 "ha/bohr"                                                  
geom_max_iter 25                                                                
EDFT_MAXIT 30                                                                   
pdos_max_l = 2                                                                  
dos_smear  0.1 eV                                                               
popn_calculate T                                                                
PDOS_PSEUDOATOMIC T                                                             
PDOS_REDUCE_SWS F                                                               
PDOS_CONSTRUCT_BASIS F                                                          
PDOS_LOWDIN T                                                                   
PDOS_ORTH_ATOM_BLOCKS F                                                         
PDOS_LCAO_OPTIMIZE F                                                            
pdos_optados_output T                                                           
homo_plot 0                                                                     
lumo_plot 0                                                                     
homo_dens_plot -1                                                               
lumo_dens_plot -1                                                               
%BLOCK SPECIES                                                                  
C C 6 4 9.0                                                                     
H H 1 1 9.0                                                                     
Li Li 3 5 9.0                                                                   
%ENDBLOCK SPECIES                                                               
%BLOCK SPECIES_POT                                                              
C "~/pp/paw/c_pbe_abinit.paw"                                                   
H "~/pp/paw/h_pbe_abinit.paw"                                                   
Li "~/pp/paw/li_pbe_abinit.paw"                                                 
%ENDBLOCK SPECIES_POT                                                           
%BLOCK SPECIES_ATOMIC_SET                                                       
C "SOLVE conf=2s2 2p2"                                                          
H "SOLVE conf=1s1"                                                              
Li "SOLVE conf=1s2 2s1 2p0"                                                     
%ENDBLOCK SPECIES_ATOMIC_SET                                                    
%BLOCK SPECIES_LDOS_GROUPS                                                      
C                                                                               
H                                                                               
Li                                                                              
%ENDBLOCK SPECIES_LDOS_GROUPS                                                   
%BLOCK LATTICE_CART                                                             
94.486315650000      0.000000000000       0.000000000000                        
0.000000000000       94.486315650000      0.000000000000                        
0.000000000000       0.000000000000       94.486315650000                       
%ENDBLOCK LATTICE_CART                                                          
%BLOCK POSITIONS_ABS                                                            
C 42.861224 41.486346 31.633420                                                 
C 38.800312 43.779524 31.787588                                                 
C 41.533566 39.143701 31.405644                                                 
C 45.550410 41.508543 31.609383                                                 
C 37.476445 41.436290 31.546203                                                 
C 37.432480 46.093886 31.916041                                                 
C 54.901448 48.576472 31.367034                                                 
C 54.858582 53.243567 31.343406                                                 
C 53.581713 46.235875 31.470461                                                 
C 38.642843 57.766924 31.953628                                                 
C 42.654351 60.145989 31.823931                                                 
C 37.326389 55.423487 32.041648                                                 
C 53.493543 55.568999 31.431038                                                 
C 45.349885 60.177219 31.768137                                                 
C 46.916909 39.185757 31.387538                                                 
C 41.494886 43.803043 31.827442                                                 
C 34.732879 46.069145 31.805869                                                 
C 50.933842 41.544737 31.448563                                                 
C 53.540333 50.904480 31.523548                                                 
C 34.679340 50.728394 31.990524                                                 
C 41.341465 57.802383 31.993468                                                 
C 38.843488 39.123782 31.357627                                                 
C 54.946024 43.906931 31.295144                                                 
C 49.568073 43.872752 31.644280                                                 
C 37.381875 50.758367 32.097274                                                 
C 49.434532 57.889891 31.708076                                                 
C 34.624648 55.389418 31.930514                                                 
C 57.586021 48.590367 31.045171                                                 
C 50.740774 60.224366 31.384453                                                 
C 57.544965 53.249017 30.990885                                                 
C 37.260085 60.079722 31.741331                                                 
C 54.808725 57.910265 31.114178                                                 
C 50.809075 55.560836 31.710797                                                 
C 46.736658 57.864701 31.880376                                                 
C 41.261828 62.457978 31.611411                                                 
C 46.657434 62.522925 31.455760                                                 
C 46.878266 43.850616 31.746801                                                 
C 50.892241 46.214961 31.675066                                                 
C 38.753031 48.440673 32.065737                                                 
C 38.701164 53.104986 32.133432                                                 
C 49.604786 39.207496 31.340404                                                 
C 33.364343 48.383225 31.861312                                                 
C 42.902540 36.831078 31.170185                                                 
C 53.622242 41.567772 31.315882                                                 
C 34.783016 41.419758 31.433824                                                 
C 33.309472 53.044603 31.926785                                                 
C 45.583094 36.851615 31.181873                                                 
C 33.419966 43.723995 31.574937                                                 
C 58.900383 50.929031 30.839959                                                 
C 53.430766 60.221602 31.062364                                                 
C 49.338367 62.537594 31.233780                                                 
C 38.572682 62.420048 31.561528                                                 
C 50.853075 50.888424 31.775881                                                 
C 42.721668 55.485652 32.098700                                                 
C 42.818377 46.146192 31.975446                                                 
C 57.633498 43.933464 31.048476                                                 
C 58.945071 46.262975 30.896572                                                 
C 33.254944 57.705160 31.744080                                                 
C 34.564160 60.039100 31.640885                                                 
C 58.860921 55.583944 30.725992                                                 
C 49.487861 53.214241 31.878844                                                 
C 45.419073 55.515383 32.044542                                                 
C 57.498677 57.900992 30.765034                                                 
C 49.529170 48.540289 31.836855                                                 
C 41.400174 53.135932 32.159577                                                 
C 42.566112 64.800754 31.370490                                                 
C 41.450183 48.467189 32.093070                                                 
C 45.513008 46.171587 31.926159                                                 
C 45.249923 64.832879 31.272790                                                 
C 37.509079 36.769393 31.077800                                                 
C 46.792570 53.191024 32.035287                                                 
C 42.773230 50.815647 32.140522                                                 
C 46.837709 48.518497 31.974176                                                 
C 41.549006 34.483701 30.910860                                                 
C 33.464271 39.051740 31.160624                                                 
C 50.986489 36.863691 31.146414                                                 
C 54.996798 39.218039 31.144571                                                 
C 30.642241 48.359127 31.716512                                                 
C 46.974885 34.519200 30.961999                                                 
C 30.587602 53.007860 31.774697                                                 
C 30.699271 43.715592 31.444132                                                 
C 45.470496 50.843633 32.080974                                                 
C 61.603544 50.943862 30.474462                                                 
C 38.909231 34.498578 30.876697                                                 
C 34.833367 36.801635 31.000612                                                 
C 37.179420 64.748194 31.305545                                                 
C 58.996636 41.576375 30.908828                                                 
C 54.737891 62.551122 30.534905                                                 
C 50.626605 64.874478 30.694578                                                 
C 61.655167 46.299444 30.584652                                                 
C 30.534051 57.651952 31.600145                                                 
C 61.554883 55.582329 30.354715                                                 
C 33.188375 62.377865 31.392877                                                 
C 41.161464 67.117679 31.148652                                                 
C 58.806658 60.229468 30.365618                                                 
C 46.546073 67.168713 30.875589                                                 
C 49.609070 34.565687 30.989126                                                 
C 29.382215 45.993165 31.551400                                                 
C 62.913470 48.603186 30.376745                                                 
C 53.646582 36.927942 31.102095                                                 
C 62.865509 53.278360 30.257362                                                 
C 57.677820 39.300272 31.000440                                                 
C 29.323888 50.667704 31.717211                                                 
C 42.983997 32.180717 30.699304                                                 
C 34.500735 64.655975 31.246946                                                 
C 38.512930 67.046622 31.138057                                                 
C 29.271575 55.343500 31.651990                                                 
C 30.744538 39.094572 31.068648                                                 
C 45.570857 32.198287 30.731624                                                 
C 29.428456 41.318736 31.208967                                                 
C 57.389383 62.494473 30.228021                                                 
C 53.355699 64.908572 30.587603                                                 
C 49.199058 67.127117 30.553984                                                 
H 37.883663 32.693391 30.672727                                                 
H 33.811458 34.994987 30.793218                                                 
C 62.975668 43.915858 30.505849                                                 
C 61.710477 41.669653 30.672272                                                 
C 62.820319 57.961058 30.093891                                                 
C 29.205870 60.020601 31.398434                                                 
C 30.468917 62.272721 31.298039                                                 
C 61.494109 60.194968 30.084380                                                 
C 42.530457 69.441841 30.919166                                                 
C 45.123460 69.463504 30.770953                                                 
H 64.934569 53.292305 29.983779                                                 
H 64.986245 48.618546 30.128060                                                 
H 50.666502 32.772217 30.860363                                                 
H 41.942460 30.384669 30.514791                                                 
H 29.738019 37.279372 30.882044                                                 
H 27.298472 45.973507 31.474777                                                 
H 37.446052 68.830013 30.962931                                                 
H 33.438058 66.441324 31.055027                                                 
H 58.730543 37.500886 30.910995                                                 
H 27.187738 55.315601 31.564404                                                 
H 46.643990 30.417665 30.586354                                                 
H 54.701252 35.132324 30.991558                                                 
H 27.346836 41.318743 31.142813                                                 
H 27.240515 50.645069 31.632798                                                 
H 58.391099 64.264155 29.712148                                                 
H 50.171890 68.914386 30.047242                                                 
H 65.052218 43.948358 30.305087                                                 
H 62.747279 39.860965 30.613484                                                 
H 54.237932 66.535173 29.603882                                                 
H 64.893229 57.959473 29.863711                                                 
H 29.423018 64.067881 31.129941                                                 
H 27.123985 59.971295 31.324347                                                 
H 41.453406 71.222613 30.814591                                                 
H 62.489010 62.012402 29.845631                                                 
H 46.152818 71.262430 30.544533                                                 
C 44.183755 39.090299 37.282387                                                 
C 36.076182 43.729506 37.594377                                                 
C 40.131801 41.406513 37.507925                                                 
C 41.495802 39.088403 37.276940                                                 
C 49.595710 39.108295 37.132843                                                 
C 37.435460 41.416531 37.421170                                                 
C 48.231948 41.431759 37.380957                                                 
C 53.647442 41.433905 37.186911                                                 
C 45.535654 41.422644 37.466071                                                 
C 52.276886 43.758105 37.347261                                                 
C 36.055913 48.402362 37.873626                                                 
C 37.415002 46.068666 37.805237                                                 
C 45.529975 36.755271 37.027651                                                 
C 36.030151 53.075096 37.974427                                                 
C 33.355551 48.395338 37.709440                                                 
C 53.625438 46.099638 37.355782                                                 
C 52.309488 39.102480 37.081506                                                 
C 33.330628 53.066712 37.845758                                                 
C 56.325010 46.117940 37.077415                                                 
C 33.371031 43.717069 37.447752                                                 
C 49.573574 43.766517 37.486015                                                 
C 37.380383 55.417078 37.960807                                                 
C 48.229975 36.755494 36.997066                                                 
C 41.476870 43.743078 37.698944                                                 
C 37.396178 50.742088 37.979804                                                 
C 36.028449 57.744573 37.798795                                                 
C 56.364865 41.431731 37.024270                                                 
C 56.310834 50.801999 37.092874                                                 
C 53.621039 50.786032 37.426503                                                 
C 53.609111 55.463645 37.413972                                                 
C 31.986516 50.728534 37.705995                                                 
C 45.488484 60.112395 37.735309                                                 
C 41.435617 57.758272 37.877010                                                 
C 57.692545 43.777128 36.913882                                                 
C 32.006677 46.035560 37.519894                                                 
C 52.249814 57.792432 37.490596                                                 
C 44.180619 43.750171 37.661678                                                 
C 48.187898 60.130079 37.681899                                                 
C 40.116855 46.074186 37.834694                                                 
C 40.072103 60.084802 37.672945                                                 
C 49.548208 57.785339 37.682963                                                 
C 52.281429 48.440095 37.512061                                                 
C 57.653010 48.464940 36.870907                                                 
C 40.088058 55.424898 37.980291                                                 
C 56.303080 55.463428 37.096578                                                 
C 52.265315 53.121499 37.557958                                                 
C 44.143347 57.770665 37.860136                                                 
C 40.143358 36.734651 36.968118                                                 
C 31.965235 55.407371 37.703727                                                 
C 44.125314 62.438160 37.542535                                                 
C 36.085693 39.078235 37.044145                                                 
C 33.313327 57.733313 37.655759                                                 
C 37.380713 60.065166 37.625665                                                 
C 57.631923 53.136149 36.892098                                                 
C 41.424665 62.412543 37.421830                                                 
C 48.226092 46.100047 37.653445                                                 
C 40.103058 50.748197 37.988520                                                 
C 48.208812 55.449423 37.795518                                                 
C 44.169051 34.403783 36.787221                                                 
C 53.682971 36.721628 36.897033                                                 
C 53.586505 60.142631 37.331385                                                 
C 49.578016 48.439763 37.672824                                                 
C 49.524202 62.473011 37.588703                                                 
C 41.450055 53.089675 37.997538                                                 
C 45.500067 55.440378 37.896254                                                 
C 49.565617 53.112787 37.739052                                                 
C 45.525726 46.090661 37.742559                                                 
C 41.463938 48.416613 37.912132                                                 
C 32.030468 41.373438 37.111479                                                 
C 37.442822 36.748277 37.117502                                                 
C 49.603072 34.391651 36.872861                                                 
C 41.485362 34.446882 36.830311                                                 
C 57.651309 57.803214 36.918276                                                 
C 57.733365 39.081225 36.828071                                                 
C 33.425489 39.092353 36.953540                                                 
C 45.468039 64.785032 37.400462                                                 
C 44.153730 53.099287 37.943200                                                 
C 48.220839 50.769569 37.783782                                                 
C 29.236556 50.712690 37.497409                                                 
C 44.167347 48.423322 37.860467                                                 
C 60.369440 48.471280 36.450086                                                 
C 52.226273 62.493993 37.458747                                                 
C 45.513919 50.762762 37.881318                                                 
C 60.416246 43.805184 36.608466                                                 
C 29.273022 46.031191 37.355818                                                 
C 56.308136 60.136880 37.133818                                                 
C 56.369945 36.755161 36.875128                                                 
C 29.247289 55.394925 37.462085                                                 
C 48.162440 64.808893 37.546198                                                 
C 60.327037 53.142734 36.405450                                                 
C 52.294782 34.427545 36.955109                                                 
C 36.020840 62.407225 37.276519                                                 
C 31.954584 60.066746 37.353877                                                 
C 40.067922 64.760071 37.070125                                                 
C 45.562358 32.105955 36.601696                                                 
C 27.924793 53.047788 37.475035                                                 
C 61.687617 46.154648 36.398903                                                 
C 27.951943 48.361551 37.427592                                                 
C 61.645504 50.821555 36.309272                                                 
C 48.199188 32.096008 36.723485                                                 
C 29.337531 41.404111 37.015917                                                 
C 33.332840 62.400080 37.360928                                                 
C 60.419385 39.157286 36.633011                                                 
C 37.384150 64.700104 37.094084                                                 
C 60.360791 57.813347 36.502604                                                 
H 36.433303 35.008739 36.540079                                                 
H 40.448732 32.666457 36.490244                                                 
C 61.724532 41.447591 36.507795                                                 
C 44.086889 67.139459 37.152686                                                 
H 32.410972 37.311791 36.550525                                                 
C 61.645495 55.470296 36.301271                                                 
C 27.997006 43.657880 37.233149                                                 
C 41.413519 67.059554 37.028173                                                 
H 57.389936 34.985581 36.421669                                                 
C 27.952376 57.745089 37.361815                                                 
C 29.273739 60.015377 37.300138                                                 
H 53.324212 32.622777 36.760909                                                 
C 53.595933 64.886465 37.615274                                                 
H 44.516467 30.319422 36.387410                                                 
H 25.869350 53.043849 37.123877                                                 
C 57.696492 62.511335 37.211975                                                 
C 49.514879 67.195407 37.622772                                                 
H 63.751279 46.165284 36.120483                                                 
H 28.332527 39.597088 36.773533                                                 
H 25.871804 48.346940 37.310491                                                 
H 63.665500 50.811330 35.762990                                                 
H 49.248865 30.303350 36.589234                                                 
H 61.464032 37.358442 36.517674                                                 
H 32.318962 64.112924 36.710795                                                 
H 36.365365 66.449875 36.555607                                                 
H 63.793295 41.474322 36.305767                                                 
H 63.647416 55.473240 35.694335                                                 
H 25.915535 43.651981 37.154929                                                 
H 25.874467 57.740022 37.202235                                                 
C 61.648907 60.171314 36.399508                                                 
H 40.366254 68.844061 36.792061                                                 
C 45.469391 69.454317 37.114986                                                 
H 28.247502 61.817301 37.093083                                                 
C 52.221832 67.164862 37.814556                                                 
C 56.305366 64.829091 37.647942                                                 
C 60.356808 62.456891 36.836117                                                 
C 48.111295 69.476582 37.381854                                                 
H 63.695681 60.180704 36.019264                                                 
H 44.425874 71.240301 36.908519                                                 
H 53.248427 68.956113 38.122138                                                 
H 57.364517 66.594461 37.992445                                                 
H 61.409715 64.255730 36.858250                                                 
H 49.137616 71.290684 37.429804                                                 
H 28.685850 37.960212 44.695798                                                 
H 40.430361 30.151410 44.650348                                                 
H 32.561913 35.271177 44.414955                                                 
H 36.525728 32.713092 44.614957                                                 
H 45.160185 29.871917 44.551182                                                 
H 26.610403 42.212336 44.906909                                                 
C 41.591200 31.875127 44.473141                                                 
C 29.845987 39.674771 44.500282                                                 
H 61.882638 38.052851 43.794504                                                 
C 33.684024 36.958517 43.887736                                                 
C 37.659927 34.434064 44.319356                                                 
C 44.204620 31.718088 44.400133                                                 
H 49.321881 31.960066 44.426086                                                 
H 64.582323 42.066444 43.530244                                                 
C 28.678288 42.067730 44.665296                                                 
H 65.494335 56.182605 43.755656                                                 
H 26.852384 46.874302 44.345362                                                 
H 27.799179 60.896883 45.283295                                                 
H 53.465669 34.047225 44.518622                                                 
H 57.604429 36.126500 44.710972                                                 
H 30.357166 64.857186 44.786824                                                 
H 27.228613 51.578723 45.076112                                                 
H 65.225044 51.437485 43.387959                                                 
H 43.055822 71.176535 44.470294                                                 
H 63.368922 60.422901 44.176707                                                 
H 27.556739 56.203333 45.425380                                                 
H 64.874922 46.772404 43.105675                                                 
C 32.471595 39.417619 44.117618                                                 
C 40.345874 34.254557 44.397759                                                 
H 47.871998 70.854573 44.506911                                                 
C 36.415539 36.772767 44.018009                                                 
H 38.802441 69.109130 43.938227                                                 
C 60.978090 39.909555 43.459211                                                 
C 62.504055 42.175800 43.516612                                                 
H 34.580580 67.052188 44.343864                                                 
C 48.387057 33.803730 44.172131                                                 
C 63.409730 56.301667 43.784365                                                 
C 28.950103 46.761367 44.297508                                                 
H 59.415864 63.027135 44.405512                                                 
C 29.850955 60.775268 44.975816                                                 
C 45.715036 33.940132 44.267217                                                 
H 51.745780 68.166747 44.348485                                                 
H 55.546073 65.563756 44.537064                                                 
C 30.104462 44.312900 44.449993                                                 
C 31.298639 62.996658 44.717713                                                 
C 52.565661 35.874471 44.035204                                                 
C 62.215421 58.691308 44.014506                                                 
C 56.728642 37.943036 44.147289                                                 
C 43.976385 69.311319 44.438853                                                 
C 29.292795 51.437770 44.712007                                                 
C 63.138176 51.597624 43.403013                                                 
C 29.583600 56.086297 44.934804                                                 
C 62.797431 46.901567 43.250078                                                 
C 46.689169 69.137700 44.385009                                                 
C 49.869767 36.006953 44.081191                                                 
C 58.280429 40.085030 43.743602                                                 
C 39.725584 67.244486 44.042603                                                 
C 54.057642 38.104772 44.057801                                                 
C 30.433290 49.023234 44.449674                                                 
C 61.368411 44.585930 43.452407                                                 
C 35.496099 65.174587 44.210177                                                 
C 41.827641 36.531566 44.085219                                                 
C 61.968142 54.070795 43.608718                                                 
C 33.999260 41.700043 44.080287                                                 
C 31.006219 58.356665 44.820480                                                 
C 45.388459 50.412848 43.597113                                                 
C 30.758974 53.694911 44.787443                                                 
C 37.901072 39.090679 43.896350                                                 
C 61.655184 49.335405 43.353215                                                 
C 46.892947 52.657388 43.626672                                                 
C 58.279608 61.277871 44.266490                                                 
C 42.685355 50.583824 43.667280                                                 
C 46.585276 47.987829 43.534122                                                 
C 44.513781 36.375731 44.022070                                                 
C 33.953722 62.899891 44.344084                                                 
C 50.549523 66.454742 44.335718                                                 
C 42.454406 67.136960 44.252841                                                 
C 32.824944 44.134145 44.220284                                                 
C 54.381353 63.833034 44.427073                                                 
C 59.534252 58.883493 44.067799                                                 
C 45.691180 55.082712 43.707366                                                 
C 49.596076 52.481907 43.593626                                                 
C 41.188350 48.328539 43.666230                                                 
C 45.081638 45.735589 43.533611                                                 
C 38.199651 65.026925 44.108280                                                 
C 41.491071 53.007224 43.761660                                                 
C 49.286354 47.810012 43.502575                                                 
C 47.890429 66.707363 44.367527                                                 
C 40.605453 38.947516 43.875495                                                 
C 36.703432 41.533070 43.895148                                                 
C 42.381780 45.893773 43.589713                                                 
C 42.989703 55.267669 43.773829                                                 
C 50.801300 50.054958 43.527208                                                 
C 48.675972 38.461430 43.821093                                                 
C 55.598583 61.449062 44.387589                                                 
C 33.140619 48.845529 44.233530                                                 
C 52.856885 40.535868 43.741806                                                 
C 57.068125 42.543303 43.643716                                                 
C 51.720188 64.055524 44.143127                                                 
C 58.589409 44.804216 43.533986                                                 
C 45.985402 38.629783 43.778581                                                 
C 46.280163 43.310203 43.536936                                                 
C 38.498661 48.496063 43.789656                                                 
C 34.318252 46.400045 44.055001                                                 
C 33.444495 53.518939 44.387102                                                 
C 50.478072 45.379672 43.494218                                                 
C 38.798559 53.179651 43.889920                                                 
C 51.098809 54.726771 43.674475                                                 
C 40.892960 43.638872 43.643435                                                 
C 50.167519 40.704090 43.656325                                                 
C 47.192850 57.325704 43.762799                                                 
C 33.718337 58.192470 44.453942                                                 
C 59.211133 54.210207 43.655815                                                 
C 42.092174 41.208438 43.677010                                                 
C 38.189183 43.791886 43.777799                                                 
C 48.970006 43.136785 43.525194                                                 
C 44.785401 41.049368 43.627416                                                 
C 58.913276 49.528483 43.454927                                                 
C 37.311808 50.926260 43.926342                                                 
C 35.202395 60.448806 44.287349                                                 
C 36.999050 46.229644 43.843544                                                 
C 34.618287 51.102210 44.166989                                                 
C 54.379300 42.754275 43.641361                                                 
C 53.498117 49.870624 43.512003                                                 
C 49.895686 57.140144 43.774325                                                 
C 43.643933 64.626324 44.204137                                                 
C 41.798009 57.686550 43.885761                                                 
C 58.003506 56.614663 43.860274                                                 
C 34.918515 55.775190 44.269171                                                 
C 53.182674 45.198298 43.529693                                                 
C 57.400783 47.242810 43.506967                                                 
C 39.399793 62.556938 44.103627                                                 
C 37.603480 55.613670 44.024302                                                 
C 57.711922 51.966651 43.539780                                                 
C 54.679844 47.437600 43.511552                                                 
C 46.354797 64.430005 44.202618                                                 
C 53.809468 54.543542 43.676399                                                 
C 55.009973 52.131326 43.558599                                                 
C 39.086682 57.865613 43.994980                                                 
C 45.988214 59.746941 43.861738                                                 
C 37.898009 60.287435 44.100809                                                 
C 54.090601 59.200823 44.068293                                                 
C 43.301358 59.930221 43.940214                                                 
C 50.197240 61.795833 44.026806                                                 
C 42.129176 62.384705 44.091681                                                 
C 51.398283 59.386997 43.949696                                                 
C 55.308258 56.787200 43.859037                                                 
C 47.507394 61.997765 44.008899                                                 
H 43.831876 29.873369 50.326021                                                 
H 27.944596 39.578613 50.734698                                                 
H 48.544248 29.734696 50.296243                                                 
H 60.828289 36.329694 50.674259                                                 
H 63.306737 40.433438 50.993912                                                 
H 25.673765 43.686813 51.178247                                                 
H 28.478101 61.704751 51.495487                                                 
H 25.993044 57.704318 51.206944                                                 
H 35.944591 34.778534 50.432875                                                 
H 39.877645 32.322282 50.247106                                                 
H 31.946747 37.219177 50.674530                                                 
H 63.540763 49.732259 51.144502                                                 
H 36.708803 66.071640 52.106842                                                 
H 63.769876 58.989399 52.024237                                                 
H 44.828164 70.612944 52.329045                                                 
H 63.437881 45.101740 50.887990                                                 
H 32.603228 63.833920 51.964047                                                 
H 52.632209 31.951068 50.225630                                                 
H 56.718658 34.138130 50.307095                                                 
H 63.641626 54.350607 51.572696                                                 
H 61.508121 63.138675 52.347200                                                 
H 40.753381 68.344878 52.111026                                                 
H 49.597987 70.536730 52.312661                                                 
H 25.889719 53.065857 51.142457                                                 
H 25.818462 48.376948 51.575844                                                 
C 44.941642 31.630520 50.197014                                                 
C 47.533259 31.551355 50.177591                                                 
C 29.006160 41.371900 50.695359                                                 
C 59.858075 38.180405 50.662033                                                 
C 27.750348 43.649167 50.951874                                                 
C 61.220391 40.446863 50.882638                                                 
C 28.071449 57.677725 51.037130                                                 
C 29.441554 59.881376 51.195821                                                 
H 57.559184 65.612130 52.191011                                                 
H 53.615601 68.083259 52.117841                                                 
C 40.962583 34.098117 50.094543                                                 
C 37.026358 36.564373 50.381594                                                 
C 33.034278 39.005416 50.646741                                                 
C 61.720791 59.101187 51.670134                                                 
C 45.853444 68.832098 51.984599                                                 
C 60.464585 61.411752 51.843348                                                 
C 51.640771 33.778470 50.054431                                                 
C 48.513774 68.800860 51.932990                                                 
C 55.753546 35.975306 50.115477                                                 
C 61.371898 45.152667 50.590980                                                 
C 61.530313 49.828690 50.555422                                                 
C 33.579781 62.079049 51.373687                                                 
C 37.650865 64.372489 51.325573                                                 
C 27.891938 48.343723 51.348262                                                 
C 27.964079 53.011540 50.930902                                                 
C 61.640547 54.462616 50.970819                                                 
C 41.749484 66.585035 51.595212                                                 
C 43.605166 33.986001 50.049773                                                 
C 49.000922 33.826354 50.018307                                                 
C 31.693220 41.296341 50.518394                                                 
C 57.181693 38.208782 50.234252                                                 
C 29.113894 45.984882 50.971627                                                 
C 60.008849 42.837286 50.538453                                                 
C 29.312910 55.289267 50.798459                                                 
C 39.674616 36.424750 50.071445                                                 
C 32.133011 59.862880 51.044237                                                 
C 35.713116 38.882203 50.521885                                                 
C 53.089097 36.020891 49.953470                                                 
C 56.495004 63.894005 51.688040                                                 
C 52.533755 66.362651 51.665741                                                 
C 29.215103 50.660996 50.984501                                                 
C 45.383332 50.313986 49.384837                                                 
C 60.396068 56.840286 51.068324                                                 
C 60.139276 47.514696 50.524851                                                 
C 44.433103 66.604427 51.487459                                                 
C 36.239074 62.070681 51.197541                                                 
C 60.266183 52.204779 50.648619                                                 
C 40.346671 64.340787 51.329952                                                 
C 57.794132 61.588006 51.449722                                                 
C 49.861046 66.494983 51.539620                                                 
C 44.097913 52.682912 49.489348                                                 
C 48.087357 50.248393 49.371369                                                 
C 43.973381 48.012040 49.385561                                                 
C 53.857180 64.034949 51.433048                                                 
C 45.514225 54.988621 49.581795                                                 
C 49.503461 52.550288 49.455858                                                 
C 45.031464 36.284389 49.854239                                                 
C 41.397150 52.735126 49.590761                                                 
C 49.368564 47.869880 49.363298                                                 
C 47.707128 36.208563 49.837810                                                 
C 33.082748 43.597786 50.266379                                                 
C 41.279580 48.076317 49.478050                                                 
C 45.267487 45.638495 49.362016                                                 
C 31.796649 45.939856 50.469868                                                 
C 55.909932 40.622955 49.944897                                                 
C 57.314880 42.911205 50.058580                                                 
C 32.018941 55.246567 50.542421                                                 
C 33.418917 57.527760 50.606714                                                 
C 48.216703 54.928089 49.570528                                                 
C 39.986847 50.436443 49.584534                                                 
C 47.958995 45.563297 49.359069                                                 
C 51.799965 38.420683 49.750892                                                 
C 41.070424 38.737152 49.811549                                                 
C 37.098748 41.192320 50.139248                                                 
C 57.707541 56.954815 50.619367                                                 
C 31.917483 50.601202 50.506788                                                 
C 45.745003 64.269464 50.945511                                                 
C 57.433847 47.612555 50.057597                                                 
C 56.415860 59.311546 50.801762                                                 
C 37.531641 59.749872 50.595145                                                 
C 48.431964 64.207396 50.992753                                                 
C 57.568942 52.302541 50.162724                                                 
C 41.643171 62.008793 50.688118                                                 
C 40.104065 55.095405 49.807389                                                 
C 44.222644 57.350867 49.817228                                                 
C 52.205484 52.475290 49.565490                                                 
C 52.064169 47.789470 49.471968                                                 
C 39.870523 45.770987 49.541604                                                 
C 49.115658 38.503523 49.676793                                                 
C 43.865540 43.334426 49.433929                                                 
C 43.748435 38.658084 49.702358                                                 
C 35.785074 43.527574 49.986344                                                 
C 53.218178 40.713264 49.687441                                                 
C 33.200120 48.251113 50.278009                                                 
C 33.305324 52.894333 50.292454                                                 
C 39.763957 41.105885 49.773403                                                 
C 41.515964 57.393586 49.943169                                                 
C 56.042719 45.306174 49.828130                                                 
C 53.479727 50.091513 49.583249                                                 
C 41.161921 43.401519 49.517027                                                 
C 36.121694 57.482377 50.371438                                                 
C 52.439916 61.750231 50.809473                                                 
C 37.285448 50.494204 49.779668                                                 
C 56.174188 50.004565 49.880143                                                 
C 49.239900 43.184110 49.430610                                                 
C 40.227775 59.730341 50.358370                                                 
C 49.629508 57.224629 49.817927                                                 
C 56.307544 54.671993 50.129648                                                 
C 44.334678 61.987040 50.518462                                                 
C 45.150574 40.963875 49.524463                                                 
C 37.175812 45.829132 49.723576                                                 
C 37.408062 55.139275 50.002185                                                 
C 53.348615 45.397169 49.556295                                                 
C 47.835998 40.886721 49.517978                                                 
C 35.878081 48.197709 49.876255                                                 
C 51.939258 43.098227 49.523819                                                 
C 35.996504 52.844479 49.982841                                                 
C 45.631787 59.645808 50.076614                                                 
C 53.728270 59.413587 50.456203                                                 
C 49.740012 61.851358 50.592754                                                 
C 53.619507 54.773337 49.821815                                                 
C 48.334644 59.582179 50.091717                                                 
C 52.333191 57.143087 49.966236                                                 
Li 59.754891 41.334932 40.110818                                                
Li 31.743804 60.528199 41.249087                                                
Li 30.533958 42.143299 40.911543                                                
Li 46.432044 67.607049 40.662990                                                
Li 60.038763 59.799751 40.213150                                                
Li 54.869290 62.314264 40.637705                                                
Li 41.114279 64.953434 40.833938                                                
Li 39.541610 35.335301 40.589493                                                
Li 28.700026 54.104692 41.344868                                                
Li 30.354664 48.203507 40.698645                                                
Li 50.818567 36.777607 40.304176                                                
Li 62.726820 53.143940 39.631596                                                
Li 62.628912 52.533193 47.406906                                                
Li 59.914076 46.953065 40.105988                                                
Li 34.899200 37.776716 40.376691                                                
Li 46.332691 33.812990 40.320950                                                
Li 55.633800 35.918556 40.780457                                                
Li 34.935044 64.857699 40.297052                                                
Li 56.374830 64.495061 33.630685                                                
Li 60.435683 47.008802 46.739401                                                
Li 51.531382 67.116502 33.855894                                                
Li 51.648077 64.748599 47.982646                                                
Li 34.861069 64.233211 48.123496                                                
Li 40.524903 65.569899 47.658681                                                
Li 59.788522 59.814496 47.989485                                                
Li 46.783762 68.822931 48.202609                                                
Li 28.280665 48.385958 47.635251                                                
Li 60.910840 40.031334 47.133277                                                
Li 34.326130 37.016495 47.550969                                                
Li 28.495440 48.492240 34.244520                                                
%ENDBLOCK POSITIONS_ABS                                                         

--------------------------------------------------------------------------------
-------------------------------- END INPUT FILE --------------------------------
--------------------------------------------------------------------------------


 
<<<<<<<<<<<<<<<<<<<<<<<<<<<<<<<<< Full system >>>>>>>>>>>>>>>>>>>>>>>>>>>>>>>>>>
<<<<<<<<<<<<<<<<<<<<<<<<<<< PAW Dataset information >>>>>>>>>>>>>>>>>>>>>>>>>>>
File: ~/pp/paw/c_pbe_abinit.paw; rc = 1.25 bohr; shape type =  3; rshape = 1.25 bohr;
  Atomic number:  6;  ionic charge:  4.000000
    Partial Wave 1: l = 0
    Partial Wave 2: l = 0
    Partial Wave 3: l = 1
    Partial Wave 4: l = 1
  Core charge supplied for Nonlinear Core Corrections
File: ~/pp/paw/h_pbe_abinit.paw; rc = 0.90 bohr; shape type =  3; rshape = 0.90 bohr;
  Atomic number:  1;  ionic charge:  1.000000
    Partial Wave 1: l = 0
    Partial Wave 2: l = 0
File: ~/pp/paw/li_pbe_abinit.paw; rc = 1.42 bohr; shape type =  3; rshape = 1.42 bohr;
  Atomic number:  3;  ionic charge:  3.000000
    Partial Wave 1: l = 0
    Partial Wave 2: l = 0
    Partial Wave 3: l = 0
    Partial Wave 4: l = 1
    Partial Wave 5: l = 1
<<<<<<<<<<<<<<<<<<<<<<<<<<<<<<<<<<<<<<< >>>>>>>>>>>>>>>>>>>>>>>>>>>>>>>>>>>>>>>

-------------------------- Atom counting information ---------------------------
Symbol    Natoms    Nngwfs    Nprojs
  C        484      1936      3872
  H        108       108       216
  Li        30       150       270
.......   ......    ......    ......
Totals:    622      2194      4358
--------------------------------------------------------------------------------

=============================== PSINC grid sizes ===============================
                      Simulation cell:  189 x 189 x 189
                              FFT-box:  117 x 117 x 117
                                  PPD:    7 x   7 x   1
Grid space d1=  0.499927596032a0 (KE cutoff=  30.39413Eh = 827.06648eV)
Grid space d2=  0.499927596032a0 (KE cutoff=  30.39413Eh = 827.06648eV)
Grid space d3=  0.499927596032a0 (KE cutoff=  30.39413Eh = 827.06648eV)
================================================================================
  
WARNING in cell_grid_distribute:
Average of less than one 23-slab per proc, so workload cannot be
equally balanced between procs.

********************* Fourier parallelisation information **********************
       Coarse grid (whole simulation cell) dimensions:    189   189   189
          Real-space ('12') slabs/proc (min max mean):      1     2     1
         Recip-space ('23') slabs/proc (min max mean):      0     1     0
********************************************************************************

********************* Fourier parallelisation information **********************
       Double grid (whole simulation cell) dimensions:    378   378   378
          Real-space ('12') slabs/proc (min max mean):      2     3     2
         Recip-space ('23') slabs/proc (min max mean):      1     2     1
********************************************************************************

Atom SCF Calculation for C  : Z (AE atom) =   6 : Z (PS atom) =   4
Config String: 2s2 2p2
Orbitals (num,occ):  2     2.00 2.00
Orbitals   (num,l):  2        0    1
Real-space Grid (nr,dr,rmax): 1377    0.0065406977    9.0000000000
Spherical Bessel Basis (nsws,lmax,cutoff):   37    2  183.0099912382
Confining potential (l,width,scale):  0    3.0000000000  100.0000000000
Confining potential (l,width,scale):  1    3.0000000000  100.0000000000
  1         -5.4795186097   -1.3252230651    4.5135247139   -1.6370402178
  2         -5.4480873667   -1.4027986130    4.4305957006   -1.6109824140
  3         -5.4553175168   -1.4212842775    4.4102621601   -1.6059044058
  4         -5.4627851864   -1.4247099971    4.4065125496   -1.6052912254
  5         -5.4662317525   -1.4266823431    4.4043718731   -1.6049357348
  6         -5.4679531179   -1.4277361345    4.4032352159   -1.6047498153
  7         -5.4688370531   -1.4282876632    4.4026436340   -1.6046546171
  8         -5.4692962224   -1.4285743132    4.4023378281   -1.6046060967
  9         -5.4695360875   -1.4287229388    4.4021801230   -1.6045813828
 10         -5.4696617783   -1.4287999625    4.4020988354   -1.6045687883
 11         -5.4697277645   -1.4288398966    4.4020569195   -1.6045623641
 12         -5.4697624500   -1.4288606199    4.4020352864   -1.6045590836
 13         -5.4697806994   -1.4288713865    4.4020241086   -1.6045574064
 14         -5.4697903086   -1.4288769875    4.4020183254   -1.6045565478
 15         -5.4697953717   -1.4288799052    4.4020153292   -1.6045561077
 16         -5.4697980412   -1.4288814272    4.4020137746   -1.6045558818
 17         -5.4697994496   -1.4288822223    4.4020129668   -1.6045557657
 18         -5.4698001930   -1.4288826382    4.4020125465   -1.6045557059
 19         -5.4698005858   -1.4288828561    4.4020123274   -1.6045556751
 20         -5.4698007933   -1.4288829704    4.4020122131   -1.6045556592
 21         -5.4698009031   -1.4288830304    4.4020121533   -1.6045556509
 22         -5.4698009612   -1.4288830620    4.4020121220   -1.6045556467
Atom SCF converged after  22 iterations to a total energy of     -5.46980096

Atom SCF Calculation for H  : Z (AE atom) =   1 : Z (PS atom) =   1
Config String: 1s1
Orbitals (num,occ):  1     1.00
Orbitals   (num,l):  1        0
Real-space Grid (nr,dr,rmax): 1377    0.0065406977    9.0000000000
Spherical Bessel Basis (nsws,lmax,cutoff):   37    1  183.0099912382
Confining potential (l,width,scale):  0    3.0000000000  100.0000000000
  1         -0.3687944832   -0.2607687933    0.2820952946   -0.2613406499
  2         -0.4328656062   -0.2590521405    0.2895573663   -0.2701762133
  3         -0.4633856573   -0.2560091938    0.2934204754   -0.2757429988
  4         -0.4750266404   -0.2549676794    0.2946557510   -0.2779015032
  5         -0.4793045155   -0.2546870695    0.2949704774   -0.2786577123
  6         -0.4808919118   -0.2546234645    0.2950332622   -0.2789201171
  7         -0.4814942533   -0.2546130669    0.2950388368   -0.2790132353
  8         -0.4817280090   -0.2546133926    0.2950352123   -0.2790473458
  9         -0.4818204053   -0.2546148712    0.2950319888   -0.2790602287
 10         -0.4818574273   -0.2546158825    0.2950301416   -0.2790652181
 11         -0.4818724050   -0.2546164247    0.2950292178   -0.2790671871
 12         -0.4818785049   -0.2546166894    0.2950287833   -0.2790679748
 13         -0.4818810009   -0.2546168128    0.2950285855   -0.2790682928
 14         -0.4818820255   -0.2546168689    0.2950284970   -0.2790684221
 15         -0.4818824471   -0.2546168940    0.2950284580   -0.2790684748
 16         -0.4818826210   -0.2546169051    0.2950284408   -0.2790684964
 17         -0.4818826928   -0.2546169100    0.2950284333   -0.2790685053
Atom SCF converged after  17 iterations to a total energy of     -0.48188269

Atom SCF Calculation for Li : Z (AE atom) =   3 : Z (PS atom) =   3
Config String: 1s2 2s1 2p0
Orbitals (num,occ):  3     2.00 1.00 0.00
Orbitals   (num,l):  3        0    0    1
Real-space Grid (nr,dr,rmax): 1377    0.0065406977    9.0000000000
Spherical Bessel Basis (nsws,lmax,cutoff):   37    2  183.0099912382
Confining potential (l,width,scale):  0    3.0000000000  100.0000000000
Confining potential (l,width,scale):  1    3.0000000000  100.0000000000
  1         -6.1314629607   -4.7499359229    2.5388576516   -1.0480231927
  2         -7.0450508208   -4.1702030791    2.9795337774   -1.2623862962
  3         -7.3518474013   -3.9564527259    3.2037296734   -1.3880788964
  4         -7.4613386962   -3.8947565558    3.2914990517   -1.4402825036
  5         -7.5001516047   -3.8789668192    3.3221434609   -1.4602864917
  6         -7.5136113510   -3.8755528126    3.3322769691   -1.4678164580
  7         -7.5181182589   -3.8751724459    3.3354399675   -1.4706394447
  8         -7.5195538340   -3.8753832694    3.3363346353   -1.4716958846
  9         -7.5199777516   -3.8756112412    3.3365363545   -1.4720903919
 10         -7.5200869011   -3.8757624244    3.3365501247   -1.4722372325
 11         -7.5201065703   -3.8758489541    3.3365264569   -1.4722916218
 12         -7.5201049812   -3.8758952022    3.3365040630   -1.4723116262
 13         -7.5201006323   -3.8759190019    3.3364892955   -1.4723189110
 14         -7.5200980758   -3.8759285770    3.3364824548   -1.4723210036
 15         -7.5200963811   -3.8759342877    3.3364781194   -1.4723220111
 16         -7.5200953120   -3.8759376792    3.3364754203   -1.4723224913
 17         -7.5200946593   -3.8759396866    3.3364737619   -1.4723227171
 18         -7.5200942701   -3.8759408718    3.3364727530   -1.4723228213
 19         -7.5200940419   -3.8759415700    3.3364721439   -1.4723228682
 20         -7.5200939099   -3.8759419808    3.3364717784   -1.4723228886
 21         -7.5200938343   -3.8759422222    3.3364715600   -1.4723228969
Atom SCF converged after  21 iterations to a total energy of     -7.52009383

Determining parallel strategy ...
... using space-filling curve
... NGWF load balancing: max     16;  min     12;  average     14
... Projector load balancing: max     32;  min     24;  average     27
... done
Calculating Ewald energy ...
              Ewald: real-space energy =   37078.728281
        Ewald: reciprocal-space energy =   36026.617073
         Ewald: (sum_charge)**2 Energy =    2823.101276
         Ewald: (sum_charge**2) Energy =     251.145732
                          Ewald Energy =   70031.098347
Basis initialisation ...... NGWF spheres initialised
... Projector spheres initialised
... NGWF tight boxes initialised
... Projector tight boxes initialised
... Tight-boxes gathered
... NGWF basis size (local,global):     279222  44292542
... PAW projector initialisation
... done

============================= Charge Augmentation ==============================
                           Aug box size:   13 x  13 x  13
================================================================================

========================== Sparse matrix information ===========================
                        Overlap matrix filling:  38.04%
                        Density kernel filling: 100.00%
              NGWF-Proj overlap matrix filling:  10.68%
                    Aug Overlap matrix filling:  42.46%
                    Hamiltonian matrix filling:  42.46%
                  NGWF diagonal matrix filling:   0.18%
                             KS matrix filling: 100.00% 
                           KSKS matrix filling: 100.00% 
================================================================================

Sparse matrix initialisation ... done
NGWF initialisation ...... done
============ Calculation of NGWF S^-1 using Hotelling algorithm ================ 
         Iteration  |  Frobenius norm and Maximum abs value    (of I-S*S_n^-1)   
               1       0.46556775E+02     0.99685942E+00
               2       0.46287102E+02     0.99373582E+00
               3       0.45784963E+02     0.98753819E+00
               4       0.44906438E+02     0.97533212E+00
               5       0.43516825E+02     0.95161554E+00
               6       0.41587559E+02     0.90660170E+00
               7       0.39185271E+02     0.82457348E+00
               8       0.36346617E+02     0.79039271E+00
               9       0.33226932E+02     0.77179376E+00
              10       0.30154752E+02     0.75092156E+00
              11       0.27045957E+02     0.73549868E+00
              12       0.23269954E+02     0.70868388E+00
              13       0.18318577E+02     0.66245374E+00
              14       0.12312545E+02     0.60581186E+00
              15       0.66045937E+01     0.52087416E+00
              16       0.30618768E+01     0.42345570E+00
              17       0.15867020E+01     0.34797403E+00
              18       0.78696087E+00     0.24121162E+00
              19       0.32048952E+00     0.12131030E+00
              20       0.85171510E-01     0.33504012E-01
              21       0.71506576E-02     0.27919433E-02
              22       0.51125472E-04     0.19947228E-04
              23       0.26138121E-08     0.10198065E-08
              24       0.56896241E-13     0.93258734E-14
================================================================================
Calculating core density ...
================================= Core Density =================================
               Core den box size:   21 x  21 x  21
================================================================================
 ... done
Up spin density kernel initialisation ...... done
Down spin density kernel initialisation ...... done

Writing density kernel to file "30/592nano.dkn" ... done

>>> Optimising kernel for current NGWFs:

--------------------------- Ensemble-DFT optimisation --------------------------
Running ScaLAPACK on  160 processor(s).

--------------------------------------------------------------------------------
  Iter                              Commutator    Free_energy(A=E-TS)     DeltaA
#    0                          0.001218472340   -3049.59764882729360  -3.05E+03

Step                       =       0.381966011250
Energy (E)                 =   -3049.569028875669
Entropy (-TS)              =      -0.028619951625
Free energy (A=E-TS)       =   -3049.597648827294
Est. 0K Energy 0.5*(E+A)   =   -3049.583338851481
Residual Non-orthogonality =       0.000000000000
Residual N_electrons       =       0.000000000000

Spin          Integrated_Ne            Fermi_level     Delta_Fermi_level
   1      1067.000000000000        -0.235459613819             -2.35E-01
   2      1067.000000000000        -0.235459613827             -2.35E-01

                           Spin 1           |                 Spin 2           |
     Orb |    H-eigenvalues     Occupancies |    H-eigenvalues     Occupancies |
       1 |    -1.9227753596    1.0000000000 |    -1.9227753596    1.0000000000 | 
                          ------                             ------
    1063 |    -0.2459639805    0.9650079949 |    -0.2459639805    0.9650079949 | 
    1064 |    -0.2422712185    0.8957560920 |    -0.2422712185    0.8957560920 | 
    1065 |    -0.2411173085    0.8565048513 |    -0.2411173085    0.8565048513 | 
    1066 |    -0.2386379010    0.7317704530 |    -0.2386379010    0.7317704530 | 
    1067 |    -0.2380224491    0.6919559289 |    -0.2380224491    0.6919559289 | 
                 - Gap at zero temperature - |     - Gap at zero temperature -
                  Finite temp. Fermi level   |      Finite temp. Fermi level  
    1068 |    -0.2328238417    0.3031566339 |    -0.2328238417    0.3031566339 | 
    1069 |    -0.2317805397    0.2383476715 |    -0.2317805397    0.2383476715 | 
    1070 |    -0.2305165460    0.1735179117 |    -0.2305165461    0.1735179117 | 
    1071 |    -0.2287300774    0.1066887250 |    -0.2287300774    0.1066887250 | 
    1072 |    -0.2250348246    0.0358505218 |    -0.2250348246    0.0358505218 | 
                          ------                             ------
    2194 |     0.5619173228    0.0000000000 |     0.5619173228    0.0000000000 | 

                            |  Abs_value |  Threshold | Converged
     Delta_Free_energy/atom |   4.90E+00 |   1.00E-06 |        No
     Delta_Energy/atom      |   4.90E+00 |   1.00E-04 |        No
     Delta_Entropy/atom     |   4.60E-05 |   1.00E-04 |       Yes
     Commutator             |   1.22E-03 |   1.00E-05 |        No
     Delta_Fermi_level      |   2.35E-01 |   1.00E-03 |        No

  Line search of the free energy minimum:
  Step_type        Step             Free_energy   Predicted_free_energy
.   Initial    0.000000    -3049.59764882729360

Performing  Pulay mixing of Hamiltonian with coefficients:
                        Spin 1               Spin 2
                1.000000000000       1.000000000000
Lambda-->      30.730925714787      30.730925713575     ... done

.    Trial1    0.381966    -3046.52762290732380

Performing  Pulay mixing of Hamiltonian with coefficients:
                        Spin 1               Spin 2
                1.000000000000       1.000000000000
Lambda-->      30.730925714787      30.730925713575     ... done

.    Trial2    0.145898    -3050.35197474116103

Performing  Pulay mixing of Hamiltonian with coefficients:
                        Spin 1               Spin 2
                1.000000000000       1.000000000000
Lambda-->      30.730925714787      30.730925713575     ... done

. Quadratic    0.119154    -3050.37351528314866    -3050.39199092242961

--------------------------------------------------------------------------------
  Iter                              Commutator    Free_energy(A=E-TS)     DeltaA
#    1                          0.000909663665   -3050.37351528314866  -7.76E-01

Step                       =       0.119154213924
Energy (E)                 =   -3050.344172000560
Entropy (-TS)              =      -0.029343282716
Free energy (A=E-TS)       =   -3050.373515283149
Est. 0K Energy 0.5*(E+A)   =   -3050.358843641854
Residual Non-orthogonality =       0.000000000000
Residual N_electrons       =       0.000000000128

Spin          Integrated_Ne            Fermi_level     Delta_Fermi_level
   1      1067.000000000809        -0.225771032697              9.69E-03
   2      1066.999999999758        -0.225771032720              9.69E-03

                           Spin 1           |                 Spin 2           |
     Orb |    H-eigenvalues     Occupancies |    H-eigenvalues     Occupancies |
       1 |    -1.9174296329    1.0000000000 |    -1.9174296328    1.0000000000 | 
                          ------                             ------
[...]
 H   317 -- Li  615       -0.02      0.00      5.63985
 C   543 -- Li  621       -0.06      0.00      5.64129
 C   217 -- Li  607       -0.03      0.00      5.64160
 H   314 -- Li  594       -0.01     -0.00      5.65428
 H   300 -- Li  621       -0.03     -0.00      5.65488
 C   502 -- Li  612       -0.05     -0.00      5.65832
 H   284 -- Li  599       -0.02      0.00      5.65980
 C    93 -- H   277       -0.02      0.00      5.66097
 H   316 -- Li  620       -0.04      0.00      5.66106
 H   479 -- Li  614       -0.01      0.00      5.66489
 C   401 -- Li  601       -0.04      0.00      5.66642
=============================================================


============== Orbital energy and occupancy information for spin 1 =============

      Total number of orbitals:    2194
        Occupancy sum (kernel):    1067.000000006
   Occupancy sum (eigenvalues):    1067.000000006
                 HOMO-LUMO gap:       0.000745934 Eh
                 Mid-gap level:      -0.088063669 Eh

                        Orbital | Energy (Eh) | Occupancy
                            1    -1.862527239   1.0000000
                        .......   ...........   .........
                         1059    -0.110747488   0.9990539
                         1060    -0.106979419   0.9969197
                         1061    -0.105408638   0.9950098
                         1062    -0.104197591   0.9927422
                         1063    -0.101648871   0.9837443
                         1064    -0.093915892   0.8347444
                         1065    -0.093126468   0.7954946
                         1066    -0.090920834   0.6612805
                         1067    -0.088870337   0.4999413
                         1068    -0.088436636   0.4671178
                        ....... -- gap at 0K -- .........
                         1069    -0.087690702   0.4061514
                         1070    -0.082806534   0.1225838
                         1071    -0.081152522   0.0749221
                         1072    -0.080491509   0.0620453
                         1073    -0.079524611   0.0418353
                         1074    -0.076896703   0.0202825
                         1075    -0.076061544   0.0159013
                         1076    -0.074754348   0.0099728
                         1077    -0.073728481   0.0072863
                         1078    -0.071952701   0.0040361
                        .......   ...........   .........
                         2194     0.774063389   0.0000000

================================================================================

============== Orbital energy and occupancy information for spin 2 =============

      Total number of orbitals:    2194
        Occupancy sum (kernel):    1066.999999996
   Occupancy sum (eigenvalues):    1066.999999996
                 HOMO-LUMO gap:       0.000433701 Eh
                 Mid-gap level:      -0.088653486 Eh

                        Orbital | Energy (Eh) | Occupancy
                            1    -1.862527239   1.0000000
                        .......   ...........   .........
                         1058    -0.114492925   0.9996992
                         1059    -0.110747488   0.9990539
                         1060    -0.106979419   0.9969197
                         1061    -0.105408638   0.9950098
                         1062    -0.104197591   0.9927422
                         1063    -0.101648871   0.9837443
                         1064    -0.093915892   0.8347444
                         1065    -0.093126468   0.7954946
                         1066    -0.090920834   0.6612805
                         1067    -0.088870337   0.4999413
                        ....... -- gap at 0K -- .........
                         1068    -0.088436636   0.4671178
                         1069    -0.087690702   0.4061515
                         1070    -0.082806534   0.1225838
                         1071    -0.081152522   0.0749221
                         1072    -0.080491509   0.0620453
                         1073    -0.079524611   0.0418353
                         1074    -0.076896703   0.0202825
                         1075    -0.076061544   0.0159013
                         1076    -0.074754348   0.0099728
                         1077    -0.073728481   0.0072863
                        .......   ...........   .........
                         2194     0.774063389   0.0000000

================================================================================

===================== Writing canonical molecular orbitals =====================
    Spin 1
| Orbital  Energy (eV)  Norm     |
| HOMO     -2.40648331  1.000000 | Writing "30/592nano_HOMO_UP.cube" ... done
Writing "30/592nano_HOMO_UP.dx" ... done
| LUMO     -2.38618543  1.000000 | Writing "30/592nano_LUMO_UP.cube" ... done
Writing "30/592nano_LUMO_UP.dx" ... done
================================================================================

===================== Writing canonical molecular orbitals =====================
    Spin 2
| Orbital  Energy (eV)  Norm     |
| HOMO     -2.41828492  1.000000 | Writing "30/592nano_HOMO_DN.cube" ... done
Writing "30/592nano_HOMO_DN.dx" ... done
| LUMO     -2.40648331  1.000000 | Writing "30/592nano_LUMO_DN.cube" ... done
Writing "30/592nano_LUMO_DN.dx" ... done
================================================================================

================== Local Density of States (LDOS) calculation ==================
Writing "30/592nano_UP_LDOS.txt" ...  done
================================================================================

================== Local Density of States (LDOS) calculation ==================
Writing "30/592nano_DN_LDOS.txt" ...  done
================================================================================
 
=============== Density of States (DOS) calculation for UP spin ================
Writing "30/592nano_UP_DOS.txt" ...  done
================================================================================
 
============== Density of States (DOS) calculation for DOWN spin ===============
Writing "30/592nano_DN_DOS.txt" ...  done
================================================================================
 
Writing bands to file "30/592nano.val_bands" ... done
 
================ Projected Density of States (pDOS) calculation ================
 
Constructing AM resolved functions  ...... done
Writing NGWF plot files in formats: CUBE DX ...  done
 
Performing overlap integrals ...  done
 
Computing pDOS weights ...  done
 
All bands spilling parameter =   3.09 %
Occupancy-weighted spilling parameter =   0.83 %
 
 => Outputting data for OptaDOS <=
 
Writing pDOS weights to file "30/592nano.val_pdos_bin" ... done
 
Writing band gradients to file "30/592nano.val_dome_bin" ... done
 
Writing Castep output cell file to "30/592nano-out.cell" ... done
 
 => Computing Gaussian smeared pDOS for UP spin<= 
Writing "30/592nano_UP_PDOS.txt" ...  done
 
 => Computing Gaussian smeared pDOS for DOWN spin<= 
Writing "30/592nano_DN_PDOS.txt" ...  done
 
 => Computing Occupancy-weighted Gaussian smeared pDOS for UP spin<= 
Writing "30/592nano_occ_UP_PDOS.txt" ...  done
  => Band centres for UP spin channel: 
 S band centre of group 1:  -17.417936 eV
 P band centre of group 1:   -8.015940 eV
  Band centres for UP spin channel done. <= 
  => Integrated number of electrons in each AM band for UP spin channel: 
 S num electrons of group 1:  296.723768
 P num electrons of group 1:  761.381970
  Integrated number of electrons for UP spin channel done. <= 
 
 => Computing Occupancy-weighted Gaussian smeared pDOS for DOWN spin<= 
Writing "30/592nano_occ_DN_PDOS.txt" ...  done
  => Band centres for DOWN spin channel: 
 S band centre of group 1:  -17.417936 eV
 P band centre of group 1:   -8.015940 eV
  Band centres for DOWN spin channel done. <=
  => Integrated number of electrons in each AM band for DOWN spin channel: 
 S num electrons of group 1:  296.723768
 P num electrons of group 1:  761.381970
  Integrated number of electrons for DOWN spin channel done. <=
================================================================================

------------------------------ TIMING INFORMATION ------------------------------
AVERAGE TIME:    7691.269s on    160 proc(s)                                    
TOTAL TIME:      7691.313s on    160 proc(s)                                    
================= AVERAGE TIMINGS FROM ALL PROCS (CUMULATIVE) ==================
|| TAG                                    #calls    cpu time   %total  Gflops ||
|| work_imbalance                       :     1        0.00s   0.000%  ------ ||
|| paw_tcore_density                    :     1        0.01s   0.000%  ------ ||
|| sparse_set_to_garbage                :   255        0.01s   0.000%  ------ ||
|| paw_dij_hartree                      :   231        0.01s   0.000%  ------ ||
|| paw_sphere_density_on_grid           :     1        0.01s   0.000%  ------ ||
|| basis_extract_function_from_box      :   383        0.03s   0.000%  ------ ||
|| ngwfs_initialise_from_radial         :     2        0.03s   0.000%  ------ ||
|| ewald_calculate_energy               :     1        0.08s   0.001%  ------ ||
|| pseudo_make_structure_factor         :     1        0.24s   0.003%  ------ ||
|| paw_dataset_init                     :     3        0.28s   0.004%  ------ ||
|| paw_tcore_hartree_on_grid            :     1        0.43s   0.006%  ------ ||
|| density_init_guess_real              :     1        0.82s   0.011%  ------ ||
|| dense_normal_eigensolve              :     1        0.90s   0.012%  ------ ||
|| sparse_init                          :     1        1.06s   0.014%  ------ ||
|| paw_species_calc_proj_prec_mat       :     1        1.53s   0.020%  ------ ||
|| augmentation_screen_dij              :   162        2.58s   0.034%  ------ ||
|| restart_kernel_write                 :    15        3.36s   0.044%  ------ ||
|| sw_init                              :     1        5.01s   0.065%  ------ ||
|| sparse_embed_hotelling_invert_embed  :    29        5.96s   0.078%  ------ ||
|| basis_copy_function_to_box           :  6787        6.68s   0.087%  ------ ||
|| paw_dij_xc                           :   231        7.26s   0.094%  ------ ||
|| ngwf_gradient_coeffs                 :    14        7.77s   0.101%  ------ ||
|| hartree_on_grid                      :   157       10.22s   0.133%  ------ ||
|| fourier_apply_box_pair               :   974       13.88s   0.180%  1.855k ||
|| aug_nonlocal_mat                     :   217       14.35s   0.187%  ------ ||
|| projectors_init_fftbox_recip         :    59       14.81s   0.193%  ------ ||
|| sparse_trace                         :  5558       17.35s   0.226%  ------ ||
|| augmentation_density_on_grid         :   157       21.21s   0.276%  ------ ||
|| basis_dot_function_with_box          : 1.902M      36.39s   0.473%  ------ ||
|| projectors_func_ovlp_box             :    30       50.46s   0.656%  ------ ||
|| integrals_kinetic                    :    29       62.33s   0.810%  ------ ||
|| eigenstates_pdos                     :     1       67.98s   0.884%  ------ ||
|| hamiltonian_energy_components        :     3      100.80s   1.311%  ------ ||
|| function_ops_brappd_ketppd           :    60      108.42s   1.410%  ------ ||
|| dense_eigensolve                     :   246      120.06s   1.561%  ------ ||
|| basis_add_function_to_box            : 4.875M     134.43s   1.748%  ------ ||
|| eigenstates_calculate                :     1      134.64s   1.751%  ------ ||
|| sparse_product                       :  7235      134.75s   1.752%  ------ ||
|| fourier_apply_cell_forward           :  5773      141.93s   1.845% 141.576 ||
|| fourier_apply_cell_backward          :  6398      212.49s   2.763% 104.797 ||
|| cell_grid_deposit_box_real           : 11393      214.37s   2.787%  ------ ||
|| integrals_locpot_mat_els_batch       :   135      279.13s   3.629%  ------ ||
|| restart_ngwfs_tightbox_output        :    13      282.87s   3.678%  ------ ||
|| density_batch_row_sums               :   157      309.35s   4.022%  ------ ||
|| edft_diag_ngwf_ham                   :   244      365.82s   4.756%  ------ ||
|| cell_grid_extract_box_real           :  4248      368.83s   4.795%  ------ ||
|| xc_energy_potential                  :   156      400.88s   5.212%  ------ ||
|| density_fftbox_interpolate_multiply  :  5024      422.05s   5.487%  ------ ||
|| projectors_gradient_batch            :    14      432.06s   5.618%  ------ ||
|| density_fftbox_deposit_to_cell       :  5024      439.93s   5.720%  ------ ||
|| fourier_apply_box                    : 23106      461.45s   6.000%  4.242k ||
|| nlxc_vdw_energy                      :   312      537.66s   6.990%  ------ ||
|| edft_apply_smearing_operator         :   122      563.36s   7.325%  ------ ||
|| potential_apply_to_ngwf_batch        :   135      631.71s   8.213%  ------ ||
|| integrals_locpot_dbl_grid            :   135      914.87s  11.895%  ------ ||
|| properties_calculate                 :     1      931.81s  12.115%  ------ ||
|| density_batch_interp_deposit         :   157     1103.43s  14.347%  ------ ||
|| projectors_grad_precond_batch        :    14     1113.49s  14.477%  ------ ||
|| density_on_dbl_grid                  :   157     1425.86s  18.539%  ------ ||
|| ngwf_gradient_build_batch            :    14     1709.68s  22.229%  ------ ||
|| ngwf_gradient_batch                  :    14     1853.69s  24.101%  ------ ||
|| ngwf_gradient_lnv                    :    14     1867.49s  24.281%  ------ ||
|| hamiltonian_lhxc_calculate           :   152     1917.51s  24.931%  ------ ||
|| edft_calculate                       :    14     3254.49s  42.314%  ------ ||
|| ngwf_cg_optimise                     :     1     6730.68s  87.511%  ------ ||
|| total_time                           :     1     7691.27s 100.000%  ------ ||
================================================================================
==================== AVERAGE TIMINGS FROM ALL PROCS (SELF) =====================
++ TAG                                    #calls    cpu time   %total  Gflops ++
++ nlxc_vdw_energy                      :   312       -3.94s  -0.051%  ------ ++
++ work_imbalance                       :     1        0.00s   0.000%  ------ ++
++ paw_tcore_density                    :     1        0.00s   0.000%  ------ ++
++ paw_sphere_density_on_grid           :     1        0.01s   0.000%  ------ ++
++ sparse_set_to_garbage                :   255        0.01s   0.000%  ------ ++
++ paw_tcore_hartree_on_grid            :     1        0.01s   0.000%  ------ ++
++ paw_dij_hartree                      :   231        0.01s   0.000%  ------ ++
++ basis_extract_function_from_box      :   383        0.03s   0.000%  ------ ++
++ ngwfs_initialise_from_radial         :     2        0.03s   0.000%  ------ ++
++ ngwf_gradient_coeffs                 :    14        0.05s   0.001%  ------ ++
++ sparse_embed_hotelling_invert_embed  :    29        0.07s   0.001%  ------ ++
++ ewald_calculate_energy               :     1        0.08s   0.001%  ------ ++
++ pseudo_make_structure_factor         :     1        0.24s   0.003%  ------ ++
++ paw_dataset_init                     :     3        0.28s   0.004%  ------ ++
++ density_init_guess_real              :     1        0.44s   0.006%  ------ ++
++ hartree_on_grid                      :   157        0.59s   0.008%  ------ ++
++ aug_nonlocal_mat                     :   217        0.90s   0.012%  ------ ++
++ dense_normal_eigensolve              :     1        0.90s   0.012%  ------ ++
++ sparse_init                          :     1        1.06s   0.014%  ------ ++
++ paw_species_calc_proj_prec_mat       :     1        1.29s   0.017%  ------ ++
++ augmentation_screen_dij              :   162        2.05s   0.027%  ------ ++
++ main_program_(onetep.F90)            :     1        2.09s   0.027%  ------ ++
++ hamiltonian_energy_components        :     3        2.74s   0.036%  ------ ++
++ restart_kernel_write                 :    15        3.36s   0.044%  ------ ++
++ integrals_locpot_dbl_grid            :   135        4.03s   0.052%  ------ ++
++ sw_init                              :     1        5.01s   0.065%  ------ ++
++ augmentation_density_on_grid         :   157        5.95s   0.077%  ------ ++
++ ngwf_gradient_lnv                    :    14        6.03s   0.078%  ------ ++
++ basis_copy_function_to_box           :  6787        6.68s   0.087%  ------ ++
++ paw_dij_xc                           :   231        7.26s   0.094%  ------ ++
++ density_on_dbl_grid                  :   157       13.08s   0.170%  ------ ++
++ fourier_apply_box_pair               :   974       13.88s   0.180%  1.855k ++
++ projectors_init_fftbox_recip         :    59       14.81s   0.193%  ------ ++
++ sparse_trace                         :  5558       17.35s   0.226%  ------ ++
++ projectors_func_ovlp_box             :    30       29.74s   0.387%  ------ ++
++ basis_dot_function_with_box          : 1.902M      36.39s   0.473%  ------ ++ (!) overhead: ~   5.7%
++ edft_calculate                       :    14       38.09s   0.495%  ------ ++
++ eigenstates_calculate                :     1       49.60s   0.645%  ------ ++
++ integrals_kinetic                    :    29       53.17s   0.691%  ------ ++
++ eigenstates_pdos                     :     1       55.12s   0.717%  ------ ++
++ xc_energy_potential                  :   156       60.44s   0.786%  ------ ++
++ ngwf_gradient_build_batch            :    14       69.96s   0.910%  ------ ++
++ ngwf_gradient_batch                  :    14       88.07s   1.145%  ------ ++
++ function_ops_brappd_ketppd           :    60      108.42s   1.410%  ------ ++
++ hamiltonian_lhxc_calculate           :   152      113.98s   1.482%  ------ ++
++ dense_eigensolve                     :   246      120.06s   1.561%  ------ ++
++ basis_add_function_to_box            : 4.875M     134.43s   1.748%  ------ ++ (!) overhead: ~   3.9%
++ sparse_product                       :  7235      134.75s   1.752%  ------ ++
++ fourier_apply_cell_forward           :  5773      141.93s   1.845% 141.576 ++
++ density_fftbox_interpolate_multiply  :  5024      159.08s   2.068%  ------ ++
++ density_batch_interp_deposit         :   157      182.64s   2.375%  ------ ++
++ edft_apply_smearing_operator         :   122      185.52s   2.412%  ------ ++
++ fourier_apply_cell_backward          :  6398      212.49s   2.763% 104.797 ++
++ cell_grid_deposit_box_real           : 11393      214.37s   2.787%  ------ ++
++ density_fftbox_deposit_to_cell       :  5024      226.88s   2.950%  ------ ++
++ density_batch_row_sums               :   157      231.41s   3.009%  ------ ++
++ edft_diag_ngwf_ham                   :   244      246.84s   3.209%  ------ ++
++ integrals_locpot_mat_els_batch       :   135      250.58s   3.258%  ------ ++
++ restart_ngwfs_tightbox_output        :    13      282.86s   3.678%  ------ ++
++ cell_grid_extract_box_real           :  4248      368.83s   4.795%  ------ ++
++ potential_apply_to_ngwf_batch        :   135      381.69s   4.963%  ------ ++
++ projectors_gradient_batch            :    14      421.23s   5.477%  ------ ++
++ fourier_apply_box                    : 23106      461.45s   6.000%  4.242k ++
++ properties_calculate                 :     1      539.60s   7.016%  ------ ++
++ ngwf_cg_optimise                     :     1      809.98s  10.531%  ------ ++
++ projectors_grad_precond_batch        :    14     1098.80s  14.286%  ------ ++
================================================================================
(!) WARNING: You're wasting precious cycles calling timer. 
             Each pair of timer_clock calls itself cost   1.08 microseconds!
Overhead of generating timer report: 
- 0 ms averaging over threads,
- 20 ms ensuring consistency across MPI ranks,
- 0 ms printing in order.

Job completed: 25-11-2021 17:54 (-0000)

