 +---------------------------------------------------------------+
 |                                                               |
 |        ####### #     # ####### ####### ####### ######         |
 |        #     # ##    # #          #    #       #     #        |
 |        #     # # #   # #          #    #       #     #        |
 |        #     # #  #  # #####      #    #####   ######         |
 |        #     # #   # # #          #    #       #              |
 |        #     # #    ## #          #    #       #              |
 |        ####### #     # #######    #    ####### #              |
 |                                                               |
 |        Linear-Scaling Ab Initio Total Energy Program          |
 |                                                               |
 |          Release for academic collaborators of ODG            |
 |                                             Version 5.3.2.12  |
 |                                                               |
 +---------------------------------------------------------------+
 |                                                               |
 |  Authors:                                                     |
 |  Jacek Dziedzic, Peter D. Haynes, Nicholas D. M. Hine,        |
 |  Arash. A. Mostofi, Mike C. Payne and Chris-Kriton Skylaris   |
 |                                                               |
 |  Contributors:                                                |
 |  J. Aarons, L. Andrinopoulos, P. W. Avraam, R. A. Bell,       |
 |  A. Bhandari, G. A. Bramley, R. J. Charlton, S. J. Clark,     |
 |  R. J. Clements, G. C. Constantinescu, F. Corsetti,           |
 |  N. Corsini, O. Dieguez, S. M. M. Dubois, K. K. B. Duff,      |
 |  J. M. Escartin, A. Greco, H. Helal, Q. O. Hill, L. P. Lee,   |
 |  J.-H. Li, E. B. Linscott, G. Moynihan, D. D. O`Regan,        |
 |  O. K. Okan, M. J. S. Phipps, C. J. Pickard,                  |
 |  J. C. A. Prentice, M. I. J. Probert, L. E. Ratcliff,         |
 |  M. Robinson, A. Ruiz Serrano, J. S. Spencer, E. W. Tait,     |
 |  G. Teobaldi, D. Turban, V. Vitale, K. A. Wilkinson,          |
 |  C. Weber, J. C. Womack, N. Yeung and T. J. Zuehlsdorff       |
 |                                                               |
 |                                   Copyright (c) 2004-2020     |
 |                                                               |
 |  Please cite:                                                 |
 |  "Introducing ONETEP: Linear-scaling density functional       |
 |   simulations on parallel computers".                         |
 |   C.-K. Skylaris, P. D. Haynes, A. A. Mostofi, M. C. Payne.   |
 |   J. Chem. Phys. 122 084119 (2005).                           |
 |                                                               |
 |          in all publications arising from your use of ONETEP. |
 |                                                               |
 +---------------------------------------------------------------+
 |                                                               |
 |   ONETEP is based on developments described in the following  |
 |   publications:                                               |
 |                                                               |
 |  "Nonorthogonal generalized Wannier function pseudopotential  |
 |   plane-wave method".                                         |
 |   C.-K. Skylaris, A. A. Mostofi, P. D. Haynes, O. Dieguez,    |
 |   M. C. Payne.                                                |
 |   Phys. Rev. B 66 035119 (2002).                              |
 |                                                               |
 |  "Preconditioned iterative minimization for linear-scaling    |
 |   electronic structure calculations".                         |
 |   A. A. Mostofi, P. D. Haynes, C.-K. Skylaris, M. C. Payne.   |
 |   J. Chem. Phys. 119(17), pp.8842-8848 (2003).                |
 |                                                               |
 |  "Total-energy calculations on a real space grid with         |
 |   localized functions and a plane-wave basis".                |
 |   A. A. Mostofi, C.-K. Skylaris, P. D. Haynes, M. C. Payne.   |
 |   Comput. Phys. Commun. 147, pp.788-802 (2002).               |
 |                                                               |
 |  "Accurate kinetic energy evaluation in electronic structure  |
 |   calculations with localized functions on real space grids"  |
 |   C.-K. Skylaris, A. A. Mostofi, P. D. Haynes, C. J. Pickard, |
 |   M. C. Payne.                                                |
 |   Comput. Phys. Commun. 140, pp.315-322 (2001).               |
 |                                                               |
 |  "Accurate ionic forces and geometry optimization in linear-  |
 |   scaling density-functional theory with local orbitals"      |
 |   N. D. M. Hine, M. Robinson, P. D. Haynes, C.-K. Skylaris,   |
 |   M. C. Payne, and A. A. Mostofi.                             |
 |   Phys. Rev. B 83 195102 (2011).                              |
 |                                                               |
 +---------------------------------------------------------------+

Job started: 12-06-2020 06:20 (+0100)
 
Reading parameters from file "16/592nano.dat" ...... done

If your calculation crashes here, before "Checking processes and threads..."
is displayed, then your stack size is insufficient.
If so, use "ulimit -s unlimited" at runtime.
You can disable this check with "check_stack_size F".

Checking processes and threads...
   Determining the default number of threads...
      No default threads set at compilation time: defaulting to 1.
      OpenMP library call suggests 4 threads.
      Hybrid MPI-OpenMP compilation detected.
      Number of MPI processes > 1.
      OMP_NUM_THREADS environment variable present and
      its value matches the one obtained from the OpenMP library call.
      Using this value as default.
      Default threads: 4
      Default applies to threads_max and threads_num_fftboxes.
      Settings in the input file override this default.
   ... done

   Running with 150 MPI processes.
   There are 10 MPI processes running on the same node as the root process.
   Each MPI process is using: 
               1 threads for simulation cell FFTs.
               1 threads for parallel FFT box operations.
               4 threads for loops over batched FFT box operations.
               4 threads in other parallel regions.
... done

Basic input checks...
Resetting ngwf_cg_rotate to TRUE for EDFT calculations
... done

Reading geometry and species blocks from file "16/592nano.dat" ...    
  Number of PPD points along a3 set to 1.  This is 
  the default value, it may have been provided also in the input file.
... done
 Writing xyz coordinates to file "16/592nano.xyz" ... done


--------------------------------------------------------------------------------
---------------------------------- INPUT FILE ----------------------------------
--------------------------------------------------------------------------------

task : singlepoint                                                              
do_properties : true                                                            
dx_format T                                                                     
edft T                                                                          
output_detail VERBOSE                                                           
write_xyz T                                                                     
dispersion 4                                                                    
xc_functional PBE                                                               
cutoff_energy 830 eV                                                            
paw T                                                                           
geom_disp_tol 0.015 bohr                                                        
geom_energy_tol 1.5E-6 hartree                                                  
geom_force_tol 0.003 "ha/bohr"                                                  
EDFT_MAXIT 30                                                                   
pdos_max_l = 2                                                                  
dos_smear  0.1 eV                                                               
popn_calculate T                                                                
PDOS_PSEUDOATOMIC T                                                             
PDOS_REDUCE_SWS F                                                               
PDOS_CONSTRUCT_BASIS F                                                          
PDOS_LOWDIN T                                                                   
PDOS_ORTH_ATOM_BLOCKS F                                                         
PDOS_LCAO_OPTIMIZE F                                                            
pdos_optados_output T                                                           
homo_plot 0                                                                     
lumo_plot 0                                                                     
homo_dens_plot -1                                                               
lumo_dens_plot -1                                                               
%BLOCK SPECIES                                                                  
C C 6 4 9.0                                                                     
H H 1 1 9.0                                                                     
Li Li 3 5 9.0                                                                   
%ENDBLOCK SPECIES                                                               
%BLOCK SPECIES_POT                                                              
C "~/pp/paw/c_pbe_abinit.paw"                                                   
H "~/pp/paw/h_pbe_abinit.paw"                                                   
Li "~/pp/paw/li_pbe_abinit.paw"                                                 
%ENDBLOCK SPECIES_POT                                                           
%BLOCK SPECIES_ATOMIC_SET                                                       
C "SOLVE conf=2s2 2p2"                                                          
H "SOLVE conf=1s1"                                                              
Li "SOLVE conf=1s2 2s1 2p0"                                                     
%ENDBLOCK SPECIES_ATOMIC_SET                                                    
%BLOCK LATTICE_CART                                                             
94.486315650000      0.000000000000       0.000000000000                        
0.000000000000       94.486315650000      0.000000000000                        
0.000000000000       0.000000000000       94.486315650000                       
%ENDBLOCK LATTICE_CART                                                          
%BLOCK POSITIONS_ABS                                                            
C 45.473330 50.724425 30.707179                                                 
C 45.409586 50.569954 36.803160                                                 
C 46.822696 53.055642 30.740236                                                 
C 48.098335 50.572098 36.810006                                                 
C 49.513790 48.396785 30.713996                                                 
C 49.442644 48.245430 36.815491                                                 
C 50.859347 50.726828 30.737567                                                 
C 52.130470 48.248191 36.832528                                                 
C 45.483851 55.391033 30.722612                                                 
C 45.415492 55.231821 36.827642                                                 
C 46.839103 57.725831 30.737352                                                 
C 48.100524 55.230535 36.833958                                                 
C 49.515977 53.053994 30.756430                                                 
C 49.442149 52.900620 36.827544                                                 
C 50.867873 55.388945 30.762177                                                 
C 52.129908 52.900091 36.841989                                                 
C 45.393037 50.504495 42.962472                                                 
C 45.344059 50.419647 49.073619                                                 
C 46.741389 52.829705 42.952905                                                 
C 48.036637 50.417838 49.048956                                                 
C 49.426281 48.173927 42.955133                                                 
C 49.383110 48.087019 49.052720                                                 
C 50.772576 50.498343 42.946605                                                 
C 52.076086 48.084448 49.059406                                                 
C 45.402928 55.159162 42.962781                                                 
C 45.349977 55.080696 49.090849                                                 
C 46.753902 57.484421 42.966039                                                 
C 48.040023 55.076083 49.058372                                                 
C 49.431053 52.826059 42.945756                                                 
C 49.383201 52.745342 49.040945                                                 
C 50.779729 55.151705 42.949851                                                 
C 52.077796 52.741038 49.041279                                                 
C 57.604627 48.397367 30.699332                                                 
C 57.506543 48.249940 36.836963                                                 
C 58.949055 50.719584 30.707617                                                 
C 60.222625 48.255092 36.828843                                                 
C 57.501534 48.167809 42.957767                                                 
C 57.462243 48.073991 49.091573                                                 
C 58.845018 50.489810 42.958878                                                 
C 60.183599 48.074643 49.100983                                                 
C 53.556411 50.726269 30.732743                                                 
C 53.471293 50.574362 36.842692                                                 
C 54.902145 53.054171 30.750026                                                 
C 56.166555 50.575147 36.846364                                                 
C 53.462926 50.495772 42.947660                                                 
C 53.422668 50.413078 49.052640                                                 
C 54.809803 52.820370 42.949693                                                 
C 56.121299 50.407547 49.068926                                                 
C 57.618245 43.750214 30.709901                                                 
C 57.512779 43.595535 36.826988                                                 
C 58.952095 46.067096 30.675124                                                 
C 60.229211 43.616990 36.815109                                                 
C 57.501162 43.524760 42.969434                                                 
C 57.462505 43.417778 49.120898                                                 
C 58.840690 45.836382 42.965669                                                 
C 60.179968 43.435187 49.134806                                                 
C 53.562549 46.073871 30.723415                                                 
C 53.477563 45.920479 36.835149                                                 
C 54.906308 48.402310 30.717409                                                 
C 56.170140 45.925162 36.833441                                                 
C 53.461317 45.846930 42.959052                                                 
C 53.422087 45.754655 49.077387                                                 
C 54.805379 48.168698 42.953292                                                 
C 56.120608 45.753781 49.098524                                                 
C 57.607353 57.709212 30.840275                                                 
C 57.509132 57.558382 36.891316                                                 
C 58.956798 60.093780 30.857837                                                 
C 60.227997 57.536792 36.907660                                                 
C 57.513884 57.460819 42.967937                                                 
C 57.466383 57.398423 48.983772                                                 
C 58.861952 59.820407 42.976884                                                 
C 60.209467 57.364571 48.984916                                                 
C 45.517976 64.733600 30.758369                                                 
C 45.451770 64.556506 36.837326                                                 
C 46.920260 67.085572 30.813855                                                 
C 48.126099 64.548892 36.865246                                                 
C 49.550878 62.395991 30.742815                                                 
C 49.466570 62.218989 36.868358                                                 
C 50.932672 64.756686 30.741711                                                 
C 52.149117 62.211725 36.887501                                                 
C 45.425684 64.474095 42.993652                                                 
C 45.386449 64.408469 49.274701                                                 
C 46.805983 66.812752 43.026460                                                 
C 48.059964 64.406640 49.206875                                                 
C 49.454282 62.135574 42.996433                                                 
C 49.406062 62.074896 49.144552                                                 
C 50.823268 64.483269 43.019997                                                 
C 52.088372 62.074462 49.119570                                                 
C 53.579937 60.053786 30.759397                                                 
C 53.487918 59.885600 36.879796                                                 
C 54.943520 62.423858 30.755438                                                 
C 56.177913 59.876030 36.896483                                                 
C 53.482509 59.799820 42.977138                                                 
C 53.421453 59.741766 49.061056                                                 
C 54.843619 62.153091 42.993798                                                 
C 56.123352 59.733422 49.012375                                                 
C 57.598659 53.037777 30.755518                                                 
C 57.506075 52.901316 36.858874                                                 
C 58.949244 55.377550 30.820985                                                 
C 60.223519 52.895789 36.863198                                                 
C 57.505686 52.815405 42.956510                                                 
C 57.466743 52.732501 49.051428                                                 
C 58.849308 55.144437 42.964572                                                 
C 60.197004 52.718402 49.058590                                                 
C 45.507114 60.059484 30.716516                                                 
C 45.426722 59.891600 36.828806                                                 
C 46.872526 62.389767 30.735631                                                 
C 48.110505 59.887425 36.847373                                                 
C 49.532567 57.724656 30.759280                                                 
C 49.448548 57.558513 36.849121                                                 
C 50.888092 60.060010 30.748184                                                 
C 52.137147 57.554620 36.861221                                                 
C 45.415463 59.815724 42.974996                                                 
C 45.364568 59.741062 49.180656                                                 
C 46.769444 62.144551 42.990927                                                 
C 48.052331 59.738477 49.120231                                                 
C 49.441231 57.478870 42.960983                                                 
C 49.390222 57.407326 49.067841                                                 
C 50.794717 59.809429 42.977071                                                 
C 52.081664 57.404065 49.047575                                                 
C 53.556731 55.386444 30.765975                                                 
C 53.475191 55.229294 36.859063                                                 
C 54.901318 57.726499 30.778264                                                 
C 56.168490 55.226386 36.869329                                                 
C 53.470411 55.145416 42.951462                                                 
C 53.424833 55.069813 49.032308                                                 
C 54.821657 57.475514 42.964253                                                 
C 56.120557 55.054560 49.028270                                                 
H 27.264889 41.380083 30.020616                                                 
H 28.256651 39.479017 36.847169                                                 
H 27.229120 41.162454 42.923536                                                 
H 28.194799 39.335272 49.858140                                                 
H 41.840379 30.311510 29.895153                                                 
C 42.889619 32.093702 29.892002                                                 
H 44.509763 30.135106 37.093979                                                 
H 41.738626 30.086316 43.022657                                                 
C 42.781077 31.873179 43.044767                                                 
H 44.372393 29.980392 49.102593                                                 
H 29.603313 37.294035 29.917974                                                 
C 30.643813 39.078808 29.889237                                                 
H 32.287614 37.133434 37.002697                                                 
H 33.713575 34.899327 29.746169                                                 
C 34.735810 36.695025 29.732167                                                 
H 29.549539 37.106643 42.885331                                                 
C 30.579674 38.899420 42.881708                                                 
H 32.231956 37.001889 50.138462                                                 
H 33.612709 34.737316 42.798664                                                 
C 34.648379 36.527266 42.801597                                                 
H 37.807837 32.605730 29.610418                                                 
C 38.821874 34.408695 29.610050                                                 
H 40.440216 32.447108 37.180572                                                 
H 37.700464 32.399283 42.874691                                                 
C 38.725913 34.196256 42.918864                                                 
H 40.304981 32.320267 49.474190                                                 
H 46.495571 30.315162 30.376454                                                 
H 46.416366 30.105070 43.058861                                                 
H 25.868843 48.226777 37.137629                                                 
C 27.933836 48.221471 37.068892                                                 
H 25.796218 48.060833 50.064766                                                 
C 27.863856 48.079914 50.053689                                                 
H 25.896622 43.514205 36.968650                                                 
H 27.255059 46.104321 29.702054                                                 
C 27.964300 43.514216 36.935094                                                 
H 25.833121 43.370234 49.931731                                                 
H 27.214923 45.826664 42.699672                                                 
C 27.900611 43.370387 49.983227                                                 
H 25.905739 57.608704 37.076571                                                 
H 27.335123 60.131022 30.129952                                                 
C 27.973700 57.624670 37.050768                                                 
H 25.809121 57.472098 49.245598                                                 
H 27.246395 59.874941 43.004805                                                 
C 27.873929 57.460852 49.339308                                                 
H 25.891442 52.945868 37.303755                                                 
H 27.322700 55.461661 29.704597                                                 
C 27.950902 52.928536 37.152442                                                 
H 25.775245 52.764567 49.755029                                                 
H 27.231462 55.220756 43.087366                                                 
C 27.843383 52.761818 49.744052                                                 
C 29.329712 41.381100 29.957806                                                 
C 29.276825 41.276188 36.868392                                                 
C 30.605671 43.748429 29.921615                                                 
C 31.967504 41.204964 36.892155                                                 
C 33.339065 38.982900 29.810319                                                 
C 33.328035 38.920501 36.954757                                                 
C 34.694462 41.386325 29.905528                                                 
C 35.990006 38.858244 37.123296                                                 
C 29.322784 46.099421 29.776551                                                 
C 29.237101 45.886607 37.030662                                                 
C 30.629598 48.422048 29.685868                                                 
C 31.958058 45.872293 36.958043                                                 
C 33.347403 43.721876 29.971930                                                 
C 33.304666 43.552837 36.903929                                                 
C 34.700104 46.076048 30.059848                                                 
C 36.003903 43.556613 36.890142                                                 
C 29.296286 41.148064 42.905892                                                 
C 29.211470 41.134112 49.943525                                                 
C 30.580736 43.524148 42.866782                                                 
C 31.908617 41.071155 49.998778                                                 
C 33.279261 38.816932 42.814799                                                 
C 33.270111 38.792072 50.090585                                                 
C 34.625118 41.183903 42.864323                                                 
C 35.943044 38.731966 50.131248                                                 
C 29.282464 45.835264 42.774410                                                 
C 29.174604 45.751514 50.060400                                                 
C 30.560300 48.196823 42.704149                                                 
C 31.893832 45.741564 49.944619                                                 
C 33.285651 43.509352 42.889781                                                 
C 33.242623 43.424312 49.918001                                                 
C 34.628183 45.852230 42.914847                                                 
C 35.940754 43.423908 49.776641                                                 
C 41.467238 39.071706 29.887734                                                 
C 41.407533 38.896524 36.997036                                                 
C 42.802133 41.407165 30.184936                                                 
C 44.096285 38.908882 36.973570                                                 
C 41.374780 38.852081 43.006723                                                 
C 41.330258 38.756801 49.481511                                                 
C 42.709577 41.190177 43.018234                                                 
C 44.002221 38.766454 49.257297                                                 
C 37.417502 41.386537 29.955313                                                 
C 37.351551 41.232454 36.974294                                                 
C 38.745791 43.725333 30.193363                                                 
C 40.044025 41.232005 36.911553                                                 
C 37.332437 41.181037 42.905777                                                 
C 37.292435 41.105353 49.844451                                                 
C 38.672998 43.521518 42.978991                                                 
C 39.981505 41.089052 49.564062                                                 
C 41.477553 34.387878 29.683243                                                 
C 41.458752 34.244194 37.133139                                                 
C 42.846917 36.737976 29.739052                                                 
C 44.118151 34.220106 37.110580                                                 
C 41.356763 34.179070 43.016874                                                 
C 41.334464 34.113901 49.442200                                                 
C 42.726649 36.525449 43.041872                                                 
C 43.974679 34.073460 49.204209                                                 
C 37.421116 36.663100 29.637858                                                 
C 37.379167 36.568672 37.038548                                                 
C 38.781042 39.050521 29.793158                                                 
C 40.043494 36.525216 37.079558                                                 
C 37.327687 36.472004 42.840873                                                 
C 37.320199 36.444288 49.931357                                                 
C 38.685580 38.845604 42.910393                                                 
C 39.966380 36.390914 49.626582                                                 
C 41.430368 48.394593 30.545826                                                 
C 41.380198 48.236207 36.799772                                                 
C 42.777452 50.727765 30.637927                                                 
C 44.066047 48.239718 36.789036                                                 
C 41.358236 48.179437 42.994087                                                 
C 41.307215 48.092680 49.217486                                                 
C 42.703865 50.507357 42.984179                                                 
C 43.998846 48.089205 49.122203                                                 
C 29.388054 55.448439 29.814624                                                 
C 29.257537 55.255322 37.125488                                                 
C 30.686363 57.771727 29.974144                                                 
C 31.975488 55.267166 37.015922                                                 
C 33.390491 53.103459 29.999386                                                 
C 33.320088 52.909699 36.954800                                                 
C 34.730294 55.423075 30.160378                                                 
C 36.009216 52.902959 36.858740                                                 
C 29.300140 55.207789 43.095356                                                 
C 29.136574 55.072784 49.493661                                                 
C 30.595155 57.507668 43.066742                                                 
C 31.879837 55.100900 49.477410                                                 
C 33.291290 52.861038 43.028184                                                 
C 33.232067 52.756396 49.538770                                                 
C 34.638474 55.180085 43.045433                                                 
C 35.920532 52.757996 49.399132                                                 
C 37.397240 50.738341 30.357774                                                 
C 37.344471 50.566683 36.830860                                                 
C 38.748329 53.072667 30.456701                                                 
C 40.036868 50.567257 36.815207                                                 
C 37.323093 50.514451 43.014219                                                 
C 37.267202 50.423932 49.370069                                                 
C 38.672108 52.843560 43.023920                                                 
C 39.961678 50.423132 49.231766                                                 
C 41.442317 43.729654 30.314990                                                 
C 41.384157 43.565681 36.826000                                                 
C 42.780322 46.062426 30.512417                                                 
C 44.076152 43.574041 36.813750                                                 
C 41.359242 43.519069 43.002844                                                 
C 41.314975 43.424850 49.357141                                                 
C 42.701975 45.850941 42.995909                                                 
C 44.002888 43.425991 49.200220                                                 
C 29.359821 50.770847 29.783862                                                 
C 29.220379 50.571510 37.095376                                                 
C 30.667565 53.120867 29.712426                                                 
C 31.965524 50.569569 36.973488                                                 
C 33.368520 48.408199 29.959636                                                 
C 33.312575 48.226545 36.923785                                                 
C 34.708542 50.746834 30.121344                                                 
C 36.003359 48.232227 36.843723                                                 
C 29.277799 50.531526 42.896954                                                 
C 29.133325 50.440881 49.915885                                                 
C 30.569908 52.864312 43.026706                                                 
C 31.882820 50.434662 49.765978                                                 
C 33.292557 48.183294 42.868948                                                 
C 33.235162 48.101317 49.776372                                                 
C 34.631236 50.521235 42.980253                                                 
C 35.930197 48.094836 49.541204                                                 
C 37.394048 46.061542 30.247651                                                 
C 37.350256 45.895030 36.835213                                                 
C 38.738264 48.395899 30.405443                                                 
C 40.034785 45.897843 36.808665                                                 
C 37.324030 45.851850 42.975759                                                 
C 37.279346 45.761840 49.544940                                                 
C 38.664727 48.181571 42.998638                                                 
C 39.964855 45.760223 49.366496                                                 
C 45.468699 32.096003 30.164818                                                 
C 45.548828 31.920670 37.044860                                                 
C 46.886977 34.393573 30.245938                                                 
C 48.129578 31.945113 36.942641                                                 
H 49.184741 30.166256 36.910641                                                 
H 50.525521 32.619063 30.692694                                                 
C 45.523535 36.735897 30.075032                                                 
C 45.478312 36.573938 37.024302                                                 
C 46.851100 39.071959 30.329582                                                 
C 48.156966 36.591659 36.924066                                                 
C 49.514634 34.414481 30.532374                                                 
C 49.533503 34.257920 36.904568                                                 
C 50.900512 36.684625 30.648404                                                 
C 52.171052 34.305069 36.855936                                                 
C 45.362435 31.883898 43.059953                                                 
C 45.407112 31.769250 49.109946                                                 
C 46.781284 34.193122 43.054307                                                 
C 48.028408 31.767244 49.051489                                                 
H 49.060552 29.976848 48.996542                                                 
H 50.446012 32.439855 43.018125                                                 
C 45.401948 36.533799 43.053784                                                 
C 45.366389 36.429276 49.145008                                                 
C 46.749252 38.861949 43.031085                                                 
C 48.060532 36.432773 49.066816                                                 
C 49.411061 34.231156 43.028162                                                 
C 49.460147 34.075545 49.046259                                                 
C 50.802685 36.515645 43.008969                                                 
C 52.110230 34.122768 49.092041                                                 
H 53.211417 32.516011 36.851588                                                 
H 53.147709 32.332614 49.070541                                                 
C 57.628514 39.121187 30.768940                                                 
C 57.538005 38.919758 36.827250                                                 
C 58.963437 41.394376 30.712453                                                 
C 60.249666 38.998240 36.818926                                                 
C 57.504237 38.909379 42.982159                                                 
C 57.478681 38.742337 49.150536                                                 
C 58.845819 41.164089 42.978037                                                 
C 60.190068 38.815707 49.168040                                                 
C 45.473552 46.062762 30.597585                                                 
C 45.414914 45.908757 36.790101                                                 
C 46.820176 48.394345 30.689789                                                 
C 48.100778 45.913644 36.808066                                                 
C 49.523593 43.741462 30.649396                                                 
C 49.452961 43.587449 36.831006                                                 
C 50.868165 46.069834 30.703250                                                 
C 52.142266 43.594190 36.834398                                                 
C 45.392063 45.849949 42.985341                                                 
C 45.346857 45.759373 49.115663                                                 
C 46.735920 48.176096 42.964352                                                 
C 48.037494 45.758620 49.073915                                                 
C 49.427268 43.521841 42.980511                                                 
C 49.389094 43.427842 49.079003                                                 
C 50.770566 45.845920 42.962806                                                 
C 52.080080 43.427133 49.083019                                                 
C 53.589959 41.416973 30.764965                                                 
C 53.497359 41.265999 36.836422                                                 
C 54.924522 43.748183 30.733180                                                 
C 56.185418 41.277814 36.828969                                                 
C 53.466337 41.195205 42.975425                                                 
C 53.434841 41.092756 49.101759                                                 
C 54.809019 43.515316 42.966483                                                 
C 56.129416 41.101032 49.127070                                                 
H 57.245871 34.868565 36.837767                                                 
H 58.668441 37.334488 30.828252                                                 
H 57.179295 34.685912 49.149570                                                 
H 58.540641 37.119580 42.986558                                                 
C 45.493176 41.408016 30.350276                                                 
C 45.434537 41.253698 36.869203                                                 
C 46.827347 43.734847 30.547420                                                 
C 48.118938 41.257276 36.855981                                                 
C 49.524159 39.061228 30.582400                                                 
C 49.483157 38.926003 36.871420                                                 
C 50.878280 41.408912 30.691325                                                 
C 52.164561 38.936352 36.844185                                                 
C 45.397612 41.193372 43.020357                                                 
C 45.353444 41.097439 49.171338                                                 
C 46.739708 43.521452 42.995928                                                 
C 48.047457 41.097554 49.100261                                                 
C 49.434636 38.865790 43.008606                                                 
C 49.411272 38.771398 49.087069                                                 
C 50.778119 41.189675 42.986154                                                 
C 52.098276 38.765966 49.098384                                                 
C 53.581081 36.746548 30.715306                                                 
C 53.533667 36.589460 36.843595                                                 
C 54.964200 39.045461 30.795865                                                 
C 56.204182 36.656840 36.832119                                                 
C 53.459039 36.569375 42.991481                                                 
C 53.470424 36.409344 49.111382                                                 
C 54.824875 38.841335 42.981718                                                 
C 56.139022 36.475765 49.146145                                                 
H 61.272180 37.200166 36.824216                                                 
H 62.682760 39.660777 30.692080                                                 
H 61.211664 37.016573 49.170963                                                 
H 62.571364 39.433772 42.983601                                                 
H 28.258684 61.659449 36.961297                                                 
H 28.172235 61.530450 49.255071                                                 
C 29.401273 60.134928 30.029657                                                 
C 29.278952 59.861575 36.980835                                                 
C 30.697498 62.384843 29.919035                                                 
C 31.975667 59.932690 36.975734                                                 
C 33.388477 57.771350 30.072950                                                 
C 33.319685 57.586161 36.944643                                                 
C 34.732862 60.090308 30.033629                                                 
C 36.014203 57.579680 36.893853                                                 
H 29.681569 64.185838 29.956890                                                 
H 32.292076 63.992657 37.214499                                                 
C 33.392010 62.448270 29.799162                                                 
C 33.332819 62.211546 37.060333                                                 
C 34.774591 64.738826 29.685545                                                 
C 36.011617 62.268641 37.135112                                                 
C 29.314280 59.891294 42.999933                                                 
C 29.199314 59.740194 49.352398                                                 
C 30.594247 62.133679 42.864685                                                 
C 31.895542 59.821291 49.527727                                                 
C 33.301306 57.519052 43.022396                                                 
C 33.231618 57.430749 49.489476                                                 
C 34.641719 59.838726 42.889696                                                 
C 35.945770 57.432220 49.512552                                                 
H 29.566171 63.925849 42.766650                                                 
H 32.241769 63.889292 49.812118                                                 
C 33.299789 62.210008 42.787937                                                 
C 33.271833 62.095231 49.782831                                                 
C 34.670913 64.492375 42.705106                                                 
C 35.946511 62.132091 49.965743                                                 
C 41.458210 57.740758 30.582761                                                 
C 41.389700 57.566991 36.830212                                                 
C 42.810431 60.071251 30.629200                                                 
C 44.076881 57.563874 36.823856                                                 
C 41.375313 57.498048 42.973202                                                 
C 41.318954 57.419526 49.276272                                                 
C 42.728974 59.823862 42.960442                                                 
C 44.010929 57.415437 49.167898                                                 
C 37.440569 60.092661 30.232398                                                 
C 37.366078 59.901673 36.939851                                                 
C 38.795989 62.426471 30.238446                                                 
C 40.054089 59.906923 36.866243                                                 
C 37.349722 59.840601 42.878157                                                 
C 37.300503 59.753282 49.665192                                                 
C 38.708971 62.173152 42.824961                                                 
C 39.987541 59.758859 49.477356                                                 
C 41.441816 53.064375 30.598768                                                 
C 41.381456 52.899406 36.822871                                                 
C 42.795435 55.396506 30.649111                                                 
C 44.067264 52.899780 36.818563                                                 
C 41.363550 52.839445 42.997843                                                 
C 41.308336 52.753805 49.168958                                                 
C 42.712894 55.164178 42.982228                                                 
C 43.998993 52.750823 49.098913                                                 
C 37.420207 55.413806 30.365092                                                 
C 37.355834 55.239581 36.848309                                                 
C 38.770875 57.748913 30.428566                                                 
C 40.039341 55.237694 36.830005                                                 
C 37.335705 55.175102 43.020647                                                 
C 37.275845 55.094910 49.357589                                                 
C 38.688468 57.499328 42.974983                                                 
C 39.966877 55.091077 49.257164                                                 
C 41.442988 67.109916 30.524978                                                 
C 41.458955 66.874188 36.876577                                                 
C 42.876247 69.407210 30.715736                                                 
C 44.091135 66.902404 36.844528                                                 
C 41.386663 66.836996 42.901361                                                 
C 41.388991 66.719307 49.517156                                                 
C 42.813396 69.142273 42.956038                                                 
C 44.022565 66.749537 49.354740                                                 
H 37.787516 68.881443 30.053545                                                 
H 40.435430 68.671460 36.926983                                                 
H 37.733704 68.620513 42.732747                                                 
H 40.364833 68.516873 49.573093                                                 
C 41.470095 62.408221 30.517180                                                 
C 41.410468 62.238472 36.855834                                                 
C 42.827476 64.748842 30.628234                                                 
C 44.088633 62.232066 36.825222                                                 
C 41.397878 62.164033 42.918377                                                 
C 41.354026 62.088313 49.472357                                                 
C 42.751464 64.487143 42.944816                                                 
C 44.025670 62.080913 49.294397                                                 
H 33.742230 66.520795 29.503254                                                 
H 33.637069 66.282915 42.658150                                                 
C 37.444428 64.808095 29.960313                                                 
C 37.397933 64.554942 37.042224                                                 
C 38.813361 67.086729 30.148286                                                 
C 40.059574 64.597851 36.906928                                                 
C 37.355386 64.547677 42.730878                                                 
C 37.345266 64.404205 49.889774                                                 
C 38.756306 66.822207 42.792289                                                 
C 40.006744 64.445473 49.639683                                                 
C 61.666907 41.461667 30.664717                                                 
C 61.527620 41.234637 36.811357                                                 
C 62.956548 43.700538 30.612721                                                 
H 63.593612 41.265459 36.808656                                                 
C 61.664857 46.077133 30.629364                                                 
C 61.507219 45.907125 36.813703                                                 
C 62.957481 48.376164 30.619362                                                 
H 63.574732 45.911748 36.807023                                                 
H 65.025036 43.718884 30.587387                                                 
C 61.560254 41.236834 42.980994                                                 
C 61.476271 41.052575 49.151488                                                 
C 62.852636 43.466450 42.977371                                                 
H 63.544177 41.075024 49.133309                                                 
C 61.558717 45.851600 42.971494                                                 
C 61.465878 45.728942 49.111117                                                 
C 62.844858 48.146528 42.968745                                                 
H 63.535178 45.727928 49.081246                                                 
H 64.922212 43.482502 42.977593                                                 
C 61.690779 55.341189 30.812308                                                 
C 61.507734 55.245791 36.894675                                                 
C 62.981163 57.736188 30.851889                                                 
H 63.576425 55.241297 36.912952                                                 
H 65.044009 53.029094 30.711603                                                 
C 61.567381 55.121563 42.968844                                                 
C 61.491315 55.056428 49.026805                                                 
C 62.864822 57.504305 42.970790                                                 
H 63.559027 55.054665 48.983024                                                 
H 64.920663 52.820665 42.964767                                                 
C 61.677110 50.707844 30.675509                                                 
C 61.506231 50.575318 36.844367                                                 
C 62.975083 53.034246 30.708655                                                 
H 65.027319 48.370682 30.602108                                                 
C 61.560468 50.486430 42.965325                                                 
C 61.474836 50.395568 49.075271                                                 
C 62.849257 52.822634 42.966580                                                 
H 64.916151 48.144743 42.970059                                                 
H 41.844910 71.199532 30.741523                                                 
H 44.474715 70.995189 36.880706                                                 
H 41.774276 70.931095 42.928551                                                 
H 44.386784 70.840176 49.308086                                                 
C 45.494602 69.393358 30.860875                                                 
C 45.518561 69.209887 36.867163                                                 
H 46.536195 71.171674 31.008252                                                 
C 48.099506 69.202834 36.894304                                                 
C 49.567694 67.040449 30.783771                                                 
C 49.506214 66.887024 36.898301                                                 
H 50.598036 68.832134 30.864680                                                 
C 52.140353 66.842084 36.925144                                                 
H 49.158460 70.981364 36.917910                                                 
C 45.392072 69.126821 43.020925                                                 
C 45.436525 69.058471 49.302270                                                 
H 46.449367 70.903057 43.052705                                                 
C 48.020108 69.058798 49.252513                                                 
C 49.433580 66.770493 43.040979                                                 
C 49.431403 66.748578 49.221704                                                 
H 50.470445 68.560212 43.060961                                                 
C 52.070087 66.714705 49.204571                                                 
H 49.068637 70.841933 49.222749                                                 
H 57.217847 66.289663 36.962614                                                 
H 57.152984 66.181553 49.146581                                                 
H 53.179312 68.632823 36.948995                                                 
H 53.101830 68.509542 49.209182                                                 
C 57.610396 62.364627 30.799915                                                 
C 57.525706 62.235931 36.925567                                                 
H 58.654005 64.149623 30.859022                                                 
C 60.238970 62.158724 36.946120                                                 
C 57.523217 62.079086 42.986042                                                 
C 57.471694 62.121430 49.044538                                                 
H 58.560682 63.869172 42.980731                                                 
C 60.192333 62.029794 49.034186                                                 
C 53.585643 64.696599 30.740381                                                 
C 53.512724 64.558522 36.915339                                                 
C 56.182839 64.496691 36.933206                                                 
C 53.478995 64.427545 43.013472                                                 
C 53.449635 64.436913 49.156244                                                 
C 56.116345 64.390305 49.139007                                                 
C 61.675572 60.000616 30.890724                                                 
C 61.521887 59.922818 36.940702                                                 
H 62.704086 61.791955 30.944992                                                 
H 63.589023 59.895202 36.964772                                                 
H 65.048946 57.722498 30.869377                                                 
H 61.261841 63.957475 36.974610                                                 
C 61.576298 59.738325 42.971301                                                 
C 61.495921 59.763178 48.988300                                                 
H 62.592638 61.539137 42.956485                                                 
H 63.561987 59.753256 48.957461                                                 
H 64.934836 57.483805 42.957616                                                 
H 61.225965 63.820328 49.041346                                                 
H 63.543254 50.390839 49.038753                                                 
H 36.285823 34.654101 50.014092                                                 
H 36.326777 66.203575 49.985720                                                 
H 27.210371 50.540226 42.825128                                                 
H 54.514627 66.217862 43.024387                                                 
H 63.573577 50.575094 36.845796                                                 
H 54.495552 34.779921 42.990317                                                 
H 36.352029 34.777254 37.144803                                                 
H 36.372554 66.342137 37.224789                                                 
H 54.623620 66.485413 30.787762                                                 
H 27.297414 50.784172 29.618496                                                 
H 54.611818 34.957512 30.769608                                                 
Li 31.870553 41.431206 26.598085                                                
Li 30.361698 47.999331 33.548358                                                
Li 58.822529 59.671845 52.347809                                                
Li 36.021552 38.628336 33.271769                                                
Li 60.287414 57.731742 27.518001                                                
Li 42.754738 36.271424 33.627950                                                
Li 30.401034 57.491725 52.756790                                                
Li 35.933843 62.445166 46.178501                                                
Li 46.814433 34.094084 52.431167                                                
Li 30.217601 47.968334 46.519629                                                
Li 52.443272 39.000426 27.383079                                                
Li 35.854724 38.627609 46.292827                                                
Li 44.349035 67.128545 27.398941                                                
Li 35.620489 62.902607 33.353094                                                
Li 30.391025 53.267895 33.594971                                                
Li 40.243560 34.494480 46.242600                                                
%ENDBLOCK POSITIONS_ABS                                                         

--------------------------------------------------------------------------------
-------------------------------- END INPUT FILE --------------------------------
--------------------------------------------------------------------------------


 
<<<<<<<<<<<<<<<<<<<<<<<<<<<<<<<<< Full system >>>>>>>>>>>>>>>>>>>>>>>>>>>>>>>>>>
<<<<<<<<<<<<<<<<<<<<<<<<<<< PAW Dataset information >>>>>>>>>>>>>>>>>>>>>>>>>>>
File: ~/pp/paw/c_pbe_abinit.paw; rc = 1.25 bohr; shape type =  3; rshape = 1.25 bohr;
  Atomic number:  6;  ionic charge:  4.000000
    Partial Wave 1: l = 0
    Partial Wave 2: l = 0
    Partial Wave 3: l = 1
    Partial Wave 4: l = 1
  Core charge supplied for Nonlinear Core Corrections
File: ~/pp/paw/h_pbe_abinit.paw; rc = 0.90 bohr; shape type =  3; rshape = 0.90 bohr;
  Atomic number:  1;  ionic charge:  1.000000
    Partial Wave 1: l = 0
    Partial Wave 2: l = 0
File: ~/pp/paw/li_pbe_abinit.paw; rc = 1.42 bohr; shape type =  3; rshape = 1.42 bohr;
  Atomic number:  3;  ionic charge:  3.000000
    Partial Wave 1: l = 0
    Partial Wave 2: l = 0
    Partial Wave 3: l = 0
    Partial Wave 4: l = 1
    Partial Wave 5: l = 1
<<<<<<<<<<<<<<<<<<<<<<<<<<<<<<<<<<<<<<< >>>>>>>>>>>>>>>>>>>>>>>>>>>>>>>>>>>>>>>

-------------------------- Atom counting information ---------------------------
Symbol    Natoms    Nngwfs    Nprojs
  C        484      1936      3872
  H        108       108       216
  Li        16        80       144
.......   ......    ......    ......
Totals:    608      2124      4232
--------------------------------------------------------------------------------

=============================== PSINC grid sizes ===============================
                      Simulation cell:  189 x 189 x 189
                              FFT-box:  117 x 117 x 117
                                  PPD:    7 x   7 x   1
Grid space d1=  0.499927596032a0 (KE cutoff=  30.39413Eh = 827.06648eV)
Grid space d2=  0.499927596032a0 (KE cutoff=  30.39413Eh = 827.06648eV)
Grid space d3=  0.499927596032a0 (KE cutoff=  30.39413Eh = 827.06648eV)
================================================================================
  
WARNING in cell_grid_distribute:
Average of less than one 23-slab per node, so workload cannot be
equally balanced between nodes.

********************* Fourier parallelisation information **********************
       Coarse grid (whole simulation cell) dimensions:    189   189   189
          Real-space ('12') slabs/node (min max mean):      1     2     1
         Recip-space ('23') slabs/node (min max mean):      0     1     0
********************************************************************************

********************* Fourier parallelisation information **********************
       Double grid (whole simulation cell) dimensions:    378   378   378
          Real-space ('12') slabs/node (min max mean):      2     3     2
         Recip-space ('23') slabs/node (min max mean):      1     2     1
********************************************************************************

Atom SCF Calculation for C  : Z (AE atom) =   6 : Z (PS atom) =   4
Config String: 2s2 2p2
Orbitals (num,occ):  2     2.00 2.00
Orbitals   (num,l):  2        0    1
Real-space Grid (nr,dr,rmax): 1377    0.0065406977    9.0000000000
Spherical Bessel Basis (nsws,lmax,cutoff):   37    2  183.0099912382
Confining potential (l,width,scale):  0    3.0000000000  100.0000000000
Confining potential (l,width,scale):  1    3.0000000000  100.0000000000
  1         -5.4350126632   -1.2715272878    4.5135247139   -1.5681949477
  2         -5.3876836850   -1.3562195125    4.4235426751   -1.5380057521
  3         -5.3928844498   -1.3758175853    4.4021699684   -1.5318377811
  4         -5.3988962903   -1.3800385428    4.3975423583   -1.5307324410
  5         -5.4018428823   -1.3823489590    4.3950111904   -1.5301555648
  6         -5.4033571720   -1.3835805046    4.3936635548   -1.5298576834
  7         -5.4041480647   -1.3842324820    4.3929512000   -1.5297032953
  8         -5.4045641108   -1.3845769138    4.3925755232   -1.5296229456
  9         -5.4047838258   -1.3847587737    4.3923775340   -1.5295810042
 10         -5.4049001347   -1.3848548089    4.3922731819   -1.5295590658
 11         -5.4049618018   -1.3849055476    4.3922181562   -1.5295475724
 12         -5.4049945351   -1.3849323732    4.3921891206   -1.5295415432
 13         -5.4050119258   -1.3849465673    4.3921737867   -1.5295383767
 14         -5.4050211723   -1.3849540841    4.3921656816   -1.5295367119
 15         -5.4050260920   -1.3849580684    4.3921613935   -1.5295358358
 16         -5.4050287113   -1.3849601822    4.3921591228   -1.5295353742
 17         -5.4050301068   -1.3849613045    4.3921579192   -1.5295351307
 18         -5.4050308507   -1.3849619010    4.3921572806   -1.5295350022
 19         -5.4050312476   -1.3849622183    4.3921569415   -1.5295349343
 20         -5.4050314594   -1.3849623873    4.3921567612   -1.5295348984
 21         -5.4050315725   -1.3849624773    4.3921566653   -1.5295348794
 22         -5.4050316330   -1.3849625253    4.3921566143   -1.5295348693
Atom SCF converged after  22 iterations to a total energy of     -5.40503163

Atom SCF Calculation for H  : Z (AE atom) =   1 : Z (PS atom) =   1
Config String: 1s1
Orbitals (num,occ):  1     1.00
Orbitals   (num,l):  1        0
Real-space Grid (nr,dr,rmax): 1377    0.0065406977    9.0000000000
Spherical Bessel Basis (nsws,lmax,cutoff):   37    1  183.0099912382
Confining potential (l,width,scale):  0    3.0000000000  100.0000000000
  1         -0.3605254152   -0.2399954029    0.2820952946   -0.2424203210
  2         -0.4156854077   -0.2398249290    0.2871789324   -0.2464796203
  3         -0.4412552402   -0.2379720642    0.2899127187   -0.2499011370
  4         -0.4517265951   -0.2371980236    0.2908966173   -0.2514141636
  5         -0.4557775773   -0.2369735141    0.2911607883   -0.2519713623
  6         -0.4573363459   -0.2369240355    0.2912108681   -0.2521663171
  7         -0.4579443228   -0.2369187864    0.2912112833   -0.2522344454
  8         -0.4581858602   -0.2369215483    0.2912049187   -0.2522587615
  9         -0.4582834939   -0.2369242589    0.2912002081   -0.2522677042
 10         -0.4583235236   -0.2369258837    0.2911975892   -0.2522710965
 11         -0.4583401154   -0.2369267223    0.2911962825   -0.2522724192
 12         -0.4583470483   -0.2369271266    0.2911956643   -0.2522729467
 13         -0.4583499624   -0.2369273145    0.2911953803   -0.2522731607
 14         -0.4583511926   -0.2369274000    0.2911952521   -0.2522732486
 15         -0.4583517136   -0.2369274385    0.2911951948   -0.2522732850
 16         -0.4583519349   -0.2369274556    0.2911951693   -0.2522733002
 17         -0.4583520290   -0.2369274632    0.2911951581   -0.2522733066
Atom SCF converged after  17 iterations to a total energy of     -0.45835203

Atom SCF Calculation for Li : Z (AE atom) =   3 : Z (PS atom) =   3
Config String: 1s2 2s1 2p0
Orbitals (num,occ):  3     2.00 1.00 0.00
Orbitals   (num,l):  3        0    0    1
Real-space Grid (nr,dr,rmax): 1377    0.0065406977    9.0000000000
Spherical Bessel Basis (nsws,lmax,cutoff):   37    2  183.0099912382
Confining potential (l,width,scale):  0    3.0000000000  100.0000000000
Confining potential (l,width,scale):  1    3.0000000000  100.0000000000
  1         -6.0640888065   -4.6655401716    2.5388576516   -0.9989538799
  2         -6.9627542978   -4.0954079129    2.9808988108   -1.1965571426
  3         -7.2692687601   -3.8889996707    3.2029735703   -1.3193883705
  4         -7.3784440298   -3.8322099748    3.2868571989   -1.3711018151
  5         -7.4170278248   -3.8191968371    3.3144974220   -1.3911175539
  6         -7.4303549880   -3.8172386945    3.3228486489   -1.3986896266
  7         -7.4348052089   -3.8175483495    3.3251259310   -1.4015352495
  8         -7.4362242328   -3.8180607346    3.3256233205   -1.4026016384
  9         -7.4366459715   -3.8184145665    3.3256561549   -1.4029998726
 10         -7.4367560626   -3.8186169740    3.3256001574   -1.4031477379
 11         -7.4367765260   -3.8187239825    3.3255481763   -1.4032021548
 12         -7.4367751741   -3.8187782620    3.3255144587   -1.4032219192
 13         -7.4367707398   -3.8188051288    3.3254952336   -1.4032289600
 14         -7.4367680349   -3.8188156035    3.3254870176   -1.4032309087
 15         -7.4367661982   -3.8188217406    3.3254819951   -1.4032318132
 16         -7.4367650112   -3.8188253257    3.3254789583   -1.4032322224
 17         -7.4367642682   -3.8188274151    3.3254771375   -1.4032324006
 18         -7.4367638134   -3.8188286307    3.3254760529   -1.4032324736
 19         -7.4367635392   -3.8188293370    3.3254754103   -1.4032325004
 20         -7.4367633760   -3.8188297469    3.3254750310   -1.4032325080
 21         -7.4367632796   -3.8188299846    3.3254748079   -1.4032325082
Atom SCF converged after  21 iterations to a total energy of     -7.43676328

Determining parallel strategy ...
... using space-filling curve
... NGWF load balancing: max     17;  min     13;  average     14
... Projector load balancing: max     34;  min     26;  average     28
... done
Calculating Ewald energy ...
              Ewald: real-space energy =   36061.392442
        Ewald: reciprocal-space energy =   34698.752380
         Ewald: (sum_charge)**2 Energy =    2733.736116
         Ewald: (sum_charge**2) Energy =     246.313265
                          Ewald Energy =   67780.095442
======================= Empirical dispersion information =======================
Model : Grimme D2
Dispersion Correction Energy: -0.19844050E+01 Hartree
================================================================================
Basis initialisation ...... NGWF spheres initialised
... Projector spheres initialised
... NGWF tight boxes initialised
... Projector tight boxes initialised
... Tight-boxes gathered
... NGWF basis size (local,global):     272982  40997756
... PAW projector initialisation
... done

============================= Charge Augmentation ==============================
                           Aug box size:   13 x  13 x  13
================================================================================

========================== Sparse matrix information ===========================
                        Overlap matrix filling:  38.52%
                        Density kernel filling: 100.00%
              NGWF-Proj overlap matrix filling:  10.93%
                    Aug Overlap matrix filling:  42.73%
                    Hamiltonian matrix filling:  42.73%
                  NGWF diagonal matrix filling:   0.18%
                             KS matrix filling: 100.00% 
                           KSKS matrix filling: 100.00% 
================================================================================

Sparse matrix initialisation ... done
NGWF initialisation ...... done
============ Calculation of NGWF S^-1 using Hotelling algorithm ================ 
         Iteration  |  Frobenius norm and Maximum abs value    (of I-S*S_n^-1)   
               1       0.45761350E+02     0.99627282E+00
               2       0.45452231E+02     0.99256825E+00
               3       0.44878591E+02     0.98522490E+00
               4       0.43882187E+02     0.97078860E+00
               5       0.42328913E+02     0.94283149E+00
               6       0.40222370E+02     0.89007848E+00
               7       0.37659271E+02     0.79486493E+00
               8       0.34699006E+02     0.77083346E+00
               9       0.31572991E+02     0.74862347E+00
              10       0.28576792E+02     0.73546322E+00
              11       0.25450064E+02     0.71538389E+00
              12       0.21529795E+02     0.68961256E+00
              13       0.16363845E+02     0.65116598E+00
              14       0.10231094E+02     0.58487029E+00
              15       0.46842155E+01     0.47664066E+00
              16       0.15336281E+01     0.32077421E+00
              17       0.62499296E+00     0.15200164E+00
              18       0.28188863E+00     0.79394365E-01
              19       0.75218079E-01     0.21760157E-01
              20       0.56451932E-02     0.16349362E-02
              21       0.31868062E-04     0.92295097E-05
              22       0.10155734E-08     0.29412517E-09
              23       0.40604608E-13     0.31086245E-14
================================================================================
Calculating core density ...
================================= Core Density =================================
               Core den box size:   21 x  21 x  21
================================================================================
 ... done
Up spin density kernel initialisation ...... done

Writing density kernel to file "16/592nano.dkn" ... done

>>> Optimising kernel for current NGWFs:

--------------------------- Ensemble-DFT optimisation --------------------------
Running ScaLAPACK on  150 processor(s).

--------------------------------------------------------------------------------
  Iter                              Commutator    Free_energy(A=E-TS)     DeltaA
#    0                          0.001004406182   -2935.82236053660199  -2.94E+03

Step                       =       0.381966011250
Energy                     =   -2935.789713998701
Entropy (-TS)              =      -0.032646537389
Free energy (A=E-TS)       =   -2935.822360536602
Est. 0K Energy 0.5*(E+A)   =   -2935.806037267651
Residual Non-orthogonality =       0.000000000000
Residual N_electrons       =      -0.000000000514

Spin          Integrated_Ne            Fermi_level     Delta_Fermi_level
   1      2091.999999997928        -0.247849378965             -2.48E-01

                           Spin 1          
     Orb      H-eigenvalues     Occupancies
       1 |    -1.8972872071    1.0000000000 | 
                          ------
    1042 |    -0.2563639405    0.9363557204 | 
    1043 |    -0.2548655434    0.9016354301 | 
    1044 |    -0.2541052287    0.8781943515 | 
    1045 |    -0.2497515606    0.6458076308 | 
    1046 |    -0.2486588905    0.5635601546 | 
                 - Gap at zero temperature -
    1047 |    -0.2468527422    0.4219647651 | 
    1048 |    -0.2446993380    0.2699838899 | 
    1049 |    -0.2440868199    0.2335949440 | 
    1050 |    -0.2405815891    0.0915390190 | 
    1051 |    -0.2403530396    0.0857116821 | 
                          ------
    2124 |     0.5647563297    0.0000000000 | 

                       |  Abs_value |  Threshold | Converged
     Delta_Free_energy |   2.94E+03 |   1.00E-06 |        No
     Delta_Energy      |   2.94E+03 |   1.00E-04 |        No
     Delta_Entropy     |   3.26E-02 |   1.00E-04 |        No
     Commutator        |   1.00E-03 |   1.00E-05 |        No
     Delta_Fermi_level |   2.48E-01 |   1.00E-03 |        No

  Line search of the free energy minimum:
  Step_type        Step             Free_energy   Predicted_free_energy
.   Initial    0.000000    -2935.82236053660199
.    Trial1    0.381966    -2934.17333898854349
.    Trial2    0.145898    -2936.34374971906345
. Quadratic    0.126405    -2936.34394047422302    -2936.35645100541933

--------------------------------------------------------------------------------
  Iter                              Commutator    Free_energy(A=E-TS)     DeltaA
#    1                          0.000703412423   -2936.34394047422302  -5.22E-01

Step                       =       0.126404951075
Energy                     =   -2936.317603322713
Entropy (-TS)              =      -0.026337151932
Free energy (A=E-TS)       =   -2936.343940474223
Est. 0K Energy 0.5*(E+A)   =   -2936.330771898468
Residual Non-orthogonality =       0.000000000000
Residual N_electrons       =       0.000000000422

Spin          Integrated_Ne            Fermi_level     Delta_Fermi_level
   1      2092.000000001817        -0.232102053052              1.57E-02

                           Spin 1          
     Orb      H-eigenvalues     Occupancies
       1 |    -1.9040265485    1.0000000000 | 
                          ------
    1042 |    -0.2418247855    0.9556464892 | 
    1043 |    -0.2406174383    0.9363712182 | 
    1044 |    -0.2391161035    0.9015762107 | 
    1045 |    -0.2363059641    0.7904251780 | 
    1046 |    -0.2329664059    0.5678147834 | 
                 - Gap at zero temperature -
    1047 |    -0.2313789736    0.4431641057 | 
    1048 |    -0.2281582304    0.2235042470 | 
    1049 |    -0.2257098061    0.1172729372 | 
    1050 |    -0.2218006964    0.0372224155 | 
    1051 |    -0.2203861702    0.0241368333 | 
                          ------
    2124 |     0.5865654770    0.0000000000 | 

                       |  Abs_value |  Threshold | Converged
     Delta_Free_energy |   5.22E-01 |   1.00E-06 |        No
     Delta_Energy      |   5.28E-01 |   1.00E-04 |        No
     Delta_Entropy     |   6.31E-03 |   1.00E-04 |        No
     Commutator        |   7.03E-04 |   1.00E-05 |        No
     Delta_Fermi_level |   1.57E-02 |   1.00E-03 |        No

  Line search of the free energy minimum:
  Step_type        Step             Free_energy   Predicted_free_energy
.   Initial    0.000000    -2936.34394047422302
.    Trial1    0.126405    -2936.50429160884187
.    Trial2    0.460089    -2933.80249606562938
. Quadratic    0.094362    -2936.53417911931365    -2936.52519176384249

--------------------------------------------------------------------------------
  Iter                              Commutator    Free_energy(A=E-TS)     DeltaA
#    2                          0.000552353960   -2936.53417911931365  -1.90E-01

Step                       =       0.094362064369
Energy                     =   -2936.504066323834
Entropy (-TS)              =      -0.030112795552
Free energy (A=E-TS)       =   -2936.534179119314
Est. 0K Energy 0.5*(E+A)   =   -2936.519122721574
Residual Non-orthogonality =       0.000000000000
Residual N_electrons       =       0.000000000073

Spin          Integrated_Ne            Fermi_level     Delta_Fermi_level
   1      2092.000000000327        -0.222794626098              9.31E-03

                           Spin 1          
     Orb      H-eigenvalues     Occupancies
       1 |    -1.9063763619    1.0000000000 | 
                          ------
    1042 |    -0.2299588577    0.9057050029 | 
    1043 |    -0.2293910939    0.8892398443 | 
    1044 |    -0.2284232318    0.8553722037 | 
    1045 |    -0.2261783226    0.7443090556 | 
    1046 |    -0.2241183621    0.6030052358 | 
                 - Gap at zero temperature -
    1047 |    -0.2233097407    0.5405756600 | 
    1048 |    -0.2199309883    0.2881747559 | 
    1049 |    -0.2169814576    0.1375661570 | 
    1050 |    -0.2119244805    0.0312944280 | 
    1051 |    -0.2109323804    0.0230718218 | 
                          ------
    2124 |     0.5946827670    0.0000000000 | 

                       |  Abs_value |  Threshold | Converged
     Delta_Free_energy |   1.90E-01 |   1.00E-06 |        No
     Delta_Energy      |   1.86E-01 |   1.00E-04 |        No
     Delta_Entropy     |   3.78E-03 |   1.00E-04 |        No
     Commutator        |   5.52E-04 |   1.00E-05 |        No
     Delta_Fermi_level |   9.31E-03 |   1.00E-03 |        No

  Line search of the free energy minimum:
  Step_type        Step             Free_energy   Predicted_free_energy
.   Initial    0.000000    -2936.53417911931365
.    Trial1    0.094362    -2936.63787036729900
.    Trial2    0.440285    -2936.12763906405007
[...]
 C   245 -- C   267       -0.10      5.38751
 C   282 -- C   358       -0.10      5.38757
 C   354 -- C   384       -0.10      5.38758
 C   272 -- C   306       -0.10      5.38772
 C   306 -- C   354       -0.10      5.38784
 C   214 -- C   378       -0.09      5.38787
 C    92 -- C   564       -0.10      5.38789
 C   207 -- C   225       -0.09      5.38810
 C    96 -- C   126       -0.10      5.38810
 C   245 -- C   345       -0.10      5.38821
 C   287 -- C   301       -0.10      5.38823
 C    84 -- C   114       -0.10      5.38827
 C   212 -- C   278       -0.10      5.38835
 C   438 -- C   452       -0.10      5.38840
 C   268 -- C   302       -0.10      5.38854
 C   224 -- C   306       -0.10      5.38870
 C   266 -- C   296       -0.10      5.38871
 C   246 -- C   276       -0.09      5.38893
 C    32 -- C   102       -0.10      5.38896
 C   379 -- C   389       -0.08      5.38919
 C   248 -- C   282       -0.10      5.38934
 C    85 -- C    95       -0.10      5.38937
 C   432 -- C   478       -0.10      5.38954
 C   213 -- C   219       -0.10      5.38956
 C   103 -- C   525       -0.10      5.38957
 C   270 -- C   300       -0.10      5.38962
 C   315 -- C   349       -0.10      5.38969
 C   277 -- C   373       -0.10      5.38975
 C    51 -- C    57       -0.10      5.38977
 C    38 -- C   104       -0.09      5.38986
 C    84 -- C   567       -0.10      5.38999
 C   275 -- C   375       -0.10      5.39005
 C   194 -- C   288       -0.09      5.39005
 C   297 -- C   303       -0.10      5.39021
 C    36 -- C    50       -0.10      5.39024
 C   274 -- C   460       -0.10      5.39027
 C   436 -- C   482       -0.10      5.39028
 C   385 -- C   395       -0.09      5.39036
 C   210 -- C   280       -0.10      5.39057
 C   406 -- C   440       -0.09      5.39062
 C   222 -- C   374       -0.10      5.39072
 C     9 -- C   433       -0.10      5.39076
 C   351 -- C   361       -0.09      5.39083
 C   197 -- C   295       -0.09      5.39088
 C   214 -- C   276       -0.10      5.39103
 C    88 -- C   118       -0.10      5.39118
 C   442 -- C   456       -0.10      5.39119
 C   256 -- C   410       -0.09      5.39172
 C   243 -- C   347       -0.09      5.39173
 C   266 -- C   422       -0.09      5.39194
 C   358 -- C   388       -0.10      5.39195
 C    82 -- C   492       -0.10      5.39220
 C     9 -- C   245       -0.10      5.39239
 C     5 -- C    59       -0.10      5.39252
 C    40 -- C   102       -0.09      5.39253
 C   178 -- C   264       -0.09      5.39260
 C   268 -- C   458       -0.09      5.39265
 C    35 -- C    41       -0.10      5.39271
 C   266 -- C   452       -0.09      5.39272
 C    77 -- C    91       -0.09      5.39273
 C   277 -- C   299       -0.10      5.39278
 C    99 -- C   121       -0.09      5.39280
 C    74 -- C   488       -0.10      5.39280
 C   368 -- C   394       -0.09      5.39281
 C   475 -- C   487       -0.09      5.39284
 C   272 -- C   462       -0.10      5.39289
 C    73 -- C   433       -0.09      5.39305
 C   243 -- C   269       -0.09      5.39311
 C   201 -- C   303       -0.09      5.39317
 C   256 -- C   290       -0.10      5.39361
 C    40 -- C    54       -0.10      5.39362
 C   190 -- C   300       -0.09      5.39364
 C   275 -- C   301       -0.09      5.39388
 C    53 -- C   395       -0.09      5.39418
 C   407 -- C   457       -0.09      5.39418
 C   257 -- C   267       -0.10      5.39428
 C   330 -- C   382       -0.09      5.39429
 C   265 -- C   443       -0.09      5.39437
 C   193 -- C   267       -0.10      5.39447
 C   105 -- C   449       -0.10      5.39454
 C   461 -- C   479       -0.09      5.39477
 C   215 -- C   225       -0.10      5.39482
 C   253 -- C   255       -0.09      5.39497
 C   447 -- C   457       -0.09      5.39516
 C    66 -- C   100       -0.09      5.39523
 C   345 -- C   351       -0.09      5.39565
 C   373 -- C   379       -0.09      5.39589
 C    15 -- C    89       -0.10      5.39593
 C   375 -- C   377       -0.09      5.39599
 C   446 -- C   460       -0.10      5.39630
 C    79 -- C    89       -0.09      5.39681
 C   293 -- C   421       -0.10      5.39696
 C   260 -- C   294       -0.09      5.39705
 C   262 -- C   460       -0.09      5.39734
 C   209 -- C   223       -0.09      5.39751
 C   221 -- C   243       -0.09      5.39752
 C    81 -- C    87       -0.09      5.39766
 C   226 -- C   304       -0.09      5.39787
 C   301 -- C   447       -0.09      5.39826
 C     3 -- C   109       -0.09      5.39847
 C   258 -- C   288       -0.10      5.39861
 C    69 -- C    95       -0.09      5.39893
 C   272 -- C   294       -0.10      5.39893
 C   316 -- C   374       -0.09      5.39900
 C   269 -- C   431       -0.09      5.39911
 C   257 -- C   439       -0.09      5.39961
 C   211 -- C   221       -0.09      5.39962
 C   285 -- C   407       -0.09      5.40003
 C   431 -- C   441       -0.10      5.40017
 C   206 -- C   304       -0.09      5.40036
 C    11 -- C    77       -0.10      5.40038
 C   481 -- C   489       -0.09      5.40066
 C   327 -- C   333       -0.09      5.40095
 C   258 -- C   408       -0.09      5.40123
 C   349 -- C   363       -0.09      5.40158
 C   105 -- C   477       -0.09      5.40170
 C   208 -- C   298       -0.09      5.40174
 C   289 -- C   299       -0.10      5.40184
 C   211 -- C   315       -0.09      5.40196
 C   192 -- C   290       -0.09      5.40215
 C   229 -- C   373       -0.09      5.40237
 C    49 -- C   391       -0.09      5.40241
 C   191 -- C   221       -0.09      5.40293
 C   233 -- C   239       -0.08      5.40297
 C   289 -- C   455       -0.10      5.40307
 C   210 -- C   296       -0.09      5.40355
 C   409 -- C   455       -0.09      5.40383
 C   408 -- C   416       -0.09      5.40448
 C   253 -- C   413       -0.10      5.40566
 C   416 -- C   476       -0.09      5.40615
 C   264 -- C   424       -0.09      5.40631
 C   212 -- C   230       -0.08      5.40641
 C   339 -- C   497       -0.10      5.40674
 C   107 -- C   475       -0.09      5.40688
 C   420 -- C   444       -0.08      5.40714
 C   199 -- C   241       -0.08      5.40724
 C   213 -- C   313       -0.09      5.40730
 C   313 -- C   319       -0.09      5.40770
 C   237 -- C   275       -0.09      5.40823
 C   143 -- C   219       -0.07      5.40847
 C    94 -- C   128       -0.09      5.40889
 C    97 -- C   123       -0.09      5.40928
 C   427 -- C   445       -0.08      5.40943
 C   185 -- C   299       -0.09      5.40948
 C    99 -- C   521       -0.09      5.41004
 C   330 -- C   394       -0.09      5.41013
 C   470 -- C   547       -0.09      5.41047
 C   218 -- C   386       -0.09      5.41173
 C   252 -- C   406       -0.10      5.41188
 C    96 -- C   567       -0.09      5.41224
 C   186 -- C   192       -0.09      5.41280
 C    52 -- C   338       -0.09      5.41357
 H   584 -- Li  602       -0.03      5.41363
 C   440 -- C   488       -0.09      5.41388
 C   252 -- C   286       -0.08      5.41411
 C   205 -- C   263       -0.09      5.41463
 C    73 -- C    79       -0.09      5.41477
 C    56 -- C   342       -0.09      5.41480
 C   466 -- C   538       -0.09      5.41537
 C    65 -- C    91       -0.09      5.41582
 C   343 -- C   506       -0.09      5.41596
 C   444 -- C   492       -0.08      5.41674
 C   181 -- C   287       -0.08      5.41740
 C   293 -- C   295       -0.09      5.41753
 C   204 -- C   294       -0.08      5.41784
 C   202 -- C   208       -0.09      5.41810
 H   174 -- Li  607       -0.02      5.41869
 C    70 -- C   104       -0.09      5.41890
 C   186 -- C   212       -0.08      5.41913
 C   230 -- C   318       -0.09      5.41940
 C   188 -- C   286       -0.08      5.42012
 C   198 -- C   204       -0.10      5.42074
 C    68 -- C   556       -0.09      5.42076
 C    83 -- C   467       -0.09      5.42082
 C   193 -- C   219       -0.09      5.42095
 C   182 -- C   188       -0.09      5.42145
 C   242 -- C   328       -0.08      5.42158
 C   413 -- C   441       -0.08      5.42185
 C    71 -- C   516       -0.09      5.42204
 C   220 -- C   238       -0.08      5.42363
 C   224 -- C   242       -0.08      5.42433
 C   477 -- C   485       -0.09      5.42465
 C   231 -- C   323       -0.09      5.42467
 C   205 -- C   207       -0.09      5.42535
 C   197 -- C   199       -0.09      5.42611
 C   202 -- C   216       -0.08      5.42631
 C   262 -- C   292       -0.09      5.42691
 C   229 -- C   235       -0.09      5.42726
 C   430 -- C   480       -0.08      5.43015
 C   261 -- C   427       -0.09      5.43183
 C   201 -- C   239       -0.08      5.43198
 C   238 -- C   314       -0.08      5.43532
 C   189 -- C   191       -0.08      5.43690
 C   423 -- C   489       -0.08      5.43723
 C   285 -- C   287       -0.08      5.43742
 C   227 -- C   309       -0.09      5.43861
 C   190 -- C   284       -0.08      5.44026
 C   409 -- C   485       -0.08      5.44201
 C   183 -- C   237       -0.07      5.44242
 C   189 -- C   255       -0.08      5.44394
 C   377 -- C   391       -0.08      5.44425
 C   319 -- C   361       -0.08      5.44443
 C   254 -- C   284       -0.08      5.44483
 C   422 -- C   430       -0.08      5.44978
 C   206 -- C   292       -0.08      5.45021
 C   185 -- C   235       -0.07      5.46032
 H   582 -- Li  604       -0.01      5.46099
 C   216 -- Li  608       -0.05      5.46249
 H   582 -- Li  608       -0.03      5.46931
 H   588 -- Li  596       -0.03      5.47179
 C    67 -- C   511       -0.07      5.48305
 C    75 -- C   463       -0.07      5.48494
 H   141 -- Li  596       -0.03      5.48606
 C   234 -- C   332       -0.08      5.48774
 C    72 -- C   560       -0.07      5.48878
 C   260 -- C   420       -0.08      5.49194
 C   181 -- C   183       -0.08      5.49492
 H   146 -- Li  604       -0.02      5.52778
 C   215 -- Li  608       -0.06      5.54430
 C   181 -- Li  594       -0.08      5.59312
 C   134 -- Li  598       -0.07      5.60614
 H   483 -- Li  606       -0.01      5.60717
 H   591 -- Li  607       -0.02      5.61709
 H   142 -- Li  596       -0.02      5.62691
 H   136 -- Li  608       -0.02      5.65996
 C   309 -- Li  598       -0.07      5.66036
 H   159 -- Li  602       -0.01      5.66791
==================================================


=================== Orbital energy and occupancy information ===================

      Total number of orbitals:    2124
        Occupancy sum (kernel):    1045.999999999
   Occupancy sum (eigenvalues):    1045.999999999
                 HOMO-LUMO gap:       0.000987955 Eh
                 Mid-gap level:      -0.079252152 Eh

                        Orbital | Energy (Eh) | Occupancy
                            1    -1.891047099   1.0000000
                        .......   ...........   .........
                         1037    -0.116900920   0.9999909
                         1038    -0.114697668   0.9999845
                         1039    -0.104260151   0.9996669
                         1040    -0.092132169   0.9855211
                         1041    -0.087834113   0.9456861
                         1042    -0.086544592   0.9195700
                         1043    -0.085870832   0.9009676
                         1044    -0.084313737   0.8499332
                         1045    -0.082539848   0.7639156
                         1046    -0.079746129   0.5668800
                        ....... -- gap at 0K -- .........
                         1047    -0.078758175   0.4950912
                         1048    -0.075781083   0.2752089
                         1049    -0.073689442   0.1620651
                         1050    -0.069861616   0.0541848
                         1051    -0.067750190   0.0289758
                         1052    -0.065993818   0.0164836
                         1053    -0.064756401   0.0112932
                         1054    -0.063647787   0.0080026
                         1055    -0.063356199   0.0073786
                         1056    -0.060917693   0.0033614
                        .......   ...........   .........
                         2124     0.794873766   0.0000000

================================================================================

===================== Writing canonical molecular orbitals =====================
| Orbital  Energy (eV)  Norm     |
| HOMO     -2.17000260  1.000000 | Writing "16/592nano_HOMO.cube" ... done
Writing "16/592nano_HOMO.dx" ... done
| LUMO     -2.14311898  1.000000 | Writing "16/592nano_LUMO.cube" ... done
Writing "16/592nano_LUMO.dx" ... done
================================================================================
 
===================== Density of States (DOS) calculation ======================
Writing "16/592nano_DOS.txt" ...  done
================================================================================
 
Writing bands to file "16/592nano.val_bands" ... done
 
================ Projected Density of States (pDOS) calculation ================
 
Constructing AM resolved functions  ...... done
Writing NGWF plot files in formats: CUBE DX ...  done
 
Performing overlap integrals ...  done
 
Computing pDOS weights ...  done
 
All bands spilling parameter =   3.59 %
Occupancy-weighted spilling parameter =   0.93 %
 
 => Outputting data for OptaDOS <=
 
Writing pDOS weights to file "16/592nano.val_pdos_bin" ... done
 
Writing band gradients to file "16/592nano.val_dome_bin" ... done
 
Writing Castep output cell file to "16/592nano-out.cell" ... done
 
 => Computing Gaussian smeared pDOS <= 
Writing "16/592nano_PDOS.txt" ...  done
 
 => Computing Occupancy-weighted Gaussian smeared pDOS <= 
Writing "16/592nano_occ_PDOS.txt" ...  done
  => Band centres: 
 S band centre of group 1:  -15.855925 eV
 P band centre of group 1:   -7.831784 eV
  Band centres done. <=
  => Integrated number of electrons in each AM band: 
 S num electrons of group 1:  562.469532
 P num electrons of group 1: 1510.017091
  Integrated number of electrons done. <=
================================================================================

------------------------------ TIMING INFORMATION ------------------------------
AVERAGE TIME:    8521.501s on    150 node(s)                                    
TOTAL TIME:      8521.502s on    150 node(s)                                    
================= AVERAGE TIMINGS FROM ALL NODES (CUMULATIVE) ==================
|| TAG                                    #calls    cpu time   %total  Gflops ||
|| work_imbalance                       :     1        0.00s   0.000%  ------ ||
|| sparse_set_to_garbage                :   159        0.01s   0.000%  ------ ||
|| paw_sphere_density_on_grid           :     1        0.01s   0.000%  ------ ||
|| paw_tcore_density                    :     1        0.01s   0.000%  ------ ||
|| basis_extract_function_from_box      :   396        0.02s   0.000%  ------ ||
|| paw_dij_hartree                      :   883        0.03s   0.000%  ------ ||
|| ngwfs_initialise_from_radial         :     2        0.04s   0.001%  ------ ||
|| density_init_guess_real              :     1        0.12s   0.001%  ------ ||
|| ewald_calculate_energy               :     1        0.19s   0.002%  ------ ||
|| paw_tcore_hartree_on_grid            :     1        0.34s   0.004%  ------ ||
|| paw_dataset_init                     :     3        0.37s   0.004%  ------ ||
|| pseudo_make_structure_factor         :     1        0.50s   0.006%  ------ ||
|| restart_kernel_write                 :    15        0.77s   0.009%  ------ ||
|| sparse_init                          :     1        1.01s   0.012%  ------ ||
|| dense_normal_eigensolve              :     1        1.11s   0.013%  ------ ||
|| paw_species_calc_proj_prec_mat       :     1        1.89s   0.022%  ------ ||
|| sparse_embed_hotelling_invert_embed  :    27        6.68s   0.078%  ------ ||
|| fourier_apply_box_pair               :   595        6.78s   0.080%  2.174k ||
|| ngwf_gradient_coeffs                 :    14        7.29s   0.086%  ------ ||
|| sw_init                              :     1        7.53s   0.088%  ------ ||
|| basis_copy_function_to_box           : 13027       13.08s   0.154%  ------ ||
|| augmentation_screen_dij              :   660       14.40s   0.169%  ------ ||
|| paw_dij_xc                           :   883       19.64s   0.230%  ------ ||
|| projectors_init_fftbox_recip         :    85       26.70s   0.313%  ------ ||
|| hartree_on_grid                      :   655       29.31s   0.344%  ------ ||
|| integrals_kinetic                    :    27       39.15s   0.459%  ------ ||
|| projectors_func_ovlp_box             :    28       42.15s   0.495%  ------ ||
|| eigenstates_pdos                     :     1       42.22s   0.495%  ------ ||
|| function_ops_brappd_ketppd           :    56       43.72s   0.513%  ------ ||
|| hamiltonian_energy_components        :     3       50.29s   0.590%  ------ ||
|| augmentation_density_on_grid         :   655       56.57s   0.664%  ------ ||
|| sparse_trace                         :  8228       57.70s   0.677%  ------ ||
|| aug_nonlocal_mat                     :   869       61.62s   0.723%  ------ ||
|| fourier_apply_cell_forward           :  3271       66.28s   0.778% 171.765 ||
|| fourier_apply_cell_backward          :  3272       67.20s   0.789% 169.479 ||
|| basis_dot_function_with_box          : 2.923M      79.95s   0.938%  ------ ||
|| eigenstates_calculate                :     1       82.52s   0.968%  ------ ||
|| xc_energy_potential                  :   654      118.96s   1.396%  ------ ||
|| restart_ngwfs_tightbox_output        :    13      132.35s   1.553%  ------ ||
|| basis_add_function_to_box            : 8.236M     216.01s   2.535%  ------ ||
|| sparse_product                       :  7317      222.76s   2.614%  ------ ||
|| dense_eigensolve                     :   624      234.53s   2.752%  ------ ||
|| projectors_gradient_batch            :    28      313.15s   3.675%  ------ ||
|| cell_grid_extract_box_real           :  7564      325.81s   3.823%  ------ ||
|| cell_grid_deposit_box_real           : 24284      368.76s   4.327%  ------ ||
|| integrals_locpot_mat_els_batch       :   446      388.69s   4.561%  ------ ||
|| projectors_grad_precond_batch        :    28      449.10s   5.270%  ------ ||
|| edft_diag_ngwf_ham                   :   623      652.78s   7.660%  ------ ||
|| density_fftbox_deposit_to_cell       : 11135      723.85s   8.494%  ------ ||
|| density_batch_row_sums               :  1310      731.72s   8.587%  ------ ||
|| properties_calculate                 :     1      750.08s   8.802%  ------ ||
|| ngwf_gradient_build_batch            :    28      847.03s   9.940%  ------ ||
|| potential_apply_to_ngwf_batch        :   446      867.21s  10.177%  ------ ||
|| ngwf_gradient_batch                  :    28      919.59s  10.791%  ------ ||
|| fourier_apply_box                    : 41206      933.70s  10.957%  3.546k ||
|| density_fftbox_interpolate_multiply  : 11135     1021.28s  11.985%  ------ ||
|| edft_apply_smearing_operator         :   623     1163.85s  13.658%  ------ ||
|| integrals_locpot_dbl_grid            :   223     1262.24s  14.812%  ------ ||
|| ngwf_gradient_lnv                    :    14     1263.90s  14.832%  ------ ||
|| density_batch_interp_deposit         :  1310     2224.78s  26.108%  ------ ||
|| density_on_dbl_grid                  :   655     3095.13s  36.321%  ------ ||
|| hamiltonian_lhxc_calculate           :   650     3461.88s  40.625%  ------ ||
|| edft_calculate                       :    14     5989.34s  70.285%  ------ ||
|| ngwf_cg_optimise                     :     1     7755.56s  91.012%  ------ ||
|| total_time                           :     1     8521.50s 100.000%  ------ ||
================================================================================
Overhead of generating timer report: 
- 0 ms averaging over threads,
- 21 ms ensuring consistency across MPI ranks,
- 0 ms printing in order.

Job completed: 12-06-2020 08:42 (+0100)

