 +---------------------------------------------------------------+
 |                                                               |
 |        ####### #     # ####### ####### ####### ######         |
 |        #     # ##    # #          #    #       #     #        |
 |        #     # # #   # #          #    #       #     #        |
 |        #     # #  #  # #####      #    #####   ######         |
 |        #     # #   # # #          #    #       #              |
 |        #     # #    ## #          #    #       #              |
 |        ####### #     # #######    #    ####### #              |
 |                                                               |
 |        Linear-Scaling Ab Initio Total Energy Program          |
 |                                                               |
 |          Release for academic collaborators of ODG            |
 |                                             Version 6.1.3.6   |
 |                                                               |
 +---------------------------------------------------------------+
 |                                                               |
 |  Authors:                                                     |
 |  Jacek Dziedzic, Peter D. Haynes, Nicholas D. M. Hine,        |
 |  Arash A. Mostofi, Mike C. Payne and Chris-Kriton Skylaris    |
 |                                                               |
 |  Contributors:                                                |
 |  J. Aarons, L. Andrinopoulos, P. W. Avraam, R. A. Bell,       |
 |  A. Bhandari, G. A. Bramley, R. J. Charlton, S. J. Clark,     |
 |  R. J. Clements, G. C. Constantinescu, F. Corsetti,           |
 |  N. Corsini, O. Dieguez, S. M. M. Dubois, K. K. B. Duff,      |
 |  J. M. Escartin, A. Greco, H. Helal, Q. O. Hill, L. P. Lee,   |
 |  J.-H. Li, E. B. Linscott, G. Moynihan, D. D. O`Regan,        |
 |  O. K. Okan, M. J. S. Phipps, C. J. Pickard,                  |
 |  J. C. A. Prentice, M. I. J. Probert, L. E. Ratcliff,         |
 |  M. Robinson, A. Ruiz Serrano, J. S. Spencer, E. W. Tait,     |
 |  G. Teobaldi, D. Turban, V. Vitale, K. A. Wilkinson,          |
 |  C. Weber, J. C. Womack, N. Yeung and T. J. Zuehlsdorff       |
 |                                                               |
 |                                   Copyright (c) 2004-2021     |
 |                                                               |
 |  Please cite:                                                 |
 |  "The ONETEP linear-scaling density functional theory program"|
 |   J. Chem. Phys. 152(17) 174111 (2020)                        |
 |                                                               |
 |          in all publications arising from your use of ONETEP. |
 |                                                               |
 +---------------------------------------------------------------+
 |                                                               |
 |   ONETEP is based on developments described in the following  |
 |   publications:                                               |
 |                                                               |
 |  "Nonorthogonal generalized Wannier function pseudopotential  |
 |   plane-wave method".                                         |
 |   C.-K. Skylaris, A. A. Mostofi, P. D. Haynes, O. Dieguez,    |
 |   M. C. Payne.                                                |
 |   Phys. Rev. B 66 035119 (2002).                              |
 |                                                               |
 |  "Preconditioned iterative minimization for linear-scaling    |
 |   electronic structure calculations".                         |
 |   A. A. Mostofi, P. D. Haynes, C.-K. Skylaris, M. C. Payne.   |
 |   J. Chem. Phys. 119(17), pp.8842-8848 (2003).                |
 |                                                               |
 |  "Total-energy calculations on a real space grid with         |
 |   localized functions and a plane-wave basis".                |
 |   A. A. Mostofi, C.-K. Skylaris, P. D. Haynes, M. C. Payne.   |
 |   Comput. Phys. Commun. 147, pp.788-802 (2002).               |
 |                                                               |
 |  "Accurate kinetic energy evaluation in electronic structure  |
 |   calculations with localized functions on real space grids"  |
 |   C.-K. Skylaris, A. A. Mostofi, P. D. Haynes, C. J. Pickard, |
 |   M. C. Payne.                                                |
 |   Comput. Phys. Commun. 140, pp.315-322 (2001).               |
 |                                                               |
 |  "Accurate ionic forces and geometry optimization in linear-  |
 |   scaling density-functional theory with local orbitals"      |
 |   N. D. M. Hine, M. Robinson, P. D. Haynes, C.-K. Skylaris,   |
 |   M. C. Payne, and A. A. Mostofi.                             |
 |   Phys. Rev. B 83 195102 (2011).                              |
 |                                                               |
 +---------------------------------------------------------------+

Job started: 18-12-2021 20:56 (-0000)
 
Reading parameters from file "58/592nano.dat" ...... done

If your calculation crashes here, before "Checking processes and threads..."
is displayed, then your stack size is insufficient.
If so, use "ulimit -s unlimited" at runtime.
You can disable this check with "check_stack_size F".

Checking processes and threads...
   Determining the default number of threads...
      No default threads set at compilation time: defaulting to 1.
      OpenMP library call suggests 4 threads.
      Hybrid MPI-OpenMP compilation detected.
      Number of MPI processes > 1.
      OMP_NUM_THREADS environment variable present and
      its value matches the one obtained from the OpenMP library call.
      Using this value as default.
      Default threads: 4
      Default applies to threads_max and threads_num_fftboxes.
      Settings in the input file override this default.
   ... done

   Running with 160 MPI processes.
   There are 16 MPI processes running on the same node as the root process.
   Each MPI process is using: 
               1 threads for simulation cell FFTs.
               1 threads for parallel FFT box operations.
               4 threads for loops over batched FFT box operations.
               4 threads in other parallel regions.
... done

Basic input checks...
Resetting ngwf_cg_rotate to TRUE for EDFT calculations
... done

Reading geometry and species blocks from file "58/592nano.dat" ...    
  Number of PPD points along a3 set to 1.  This is 
  the default value, it may have been provided also in the input file.
... done
 Writing xyz coordinates to file "58/592nano.xyz" ... done


--------------------------------------------------------------------------------
---------------------------------- INPUT FILE ----------------------------------
--------------------------------------------------------------------------------

task : singlepoint                                                              
do_properties : true                                                            
dx_format T                                                                     
edft T                                                                          
edft_spin_fix 3                                                                 
output_detail VERBOSE                                                           
timings_level 3                                                                 
write_xyz T                                                                     
edft_update_scheme: pulay_mix                                                   
edft_ham_diis_size: 10                                                          
edft_trial_step: 0.1                                                            
xc_functional OPTPBE                                                            
cutoff_energy 830 eV                                                            
paw T                                                                           
geom_disp_tol 0.06 bohr                                                         
geom_energy_tol 6E-6 hartree                                                    
geom_force_tol 0.012 "ha/bohr"                                                  
geom_max_iter 25                                                                
EDFT_MAXIT 30                                                                   
pdos_max_l = 2                                                                  
dos_smear  0.1 eV                                                               
popn_calculate T                                                                
PDOS_PSEUDOATOMIC T                                                             
PDOS_REDUCE_SWS F                                                               
PDOS_CONSTRUCT_BASIS F                                                          
PDOS_LOWDIN T                                                                   
PDOS_ORTH_ATOM_BLOCKS F                                                         
PDOS_LCAO_OPTIMIZE F                                                            
pdos_optados_output T                                                           
homo_plot 0                                                                     
lumo_plot 0                                                                     
homo_dens_plot -1                                                               
lumo_dens_plot -1                                                               
%BLOCK SPECIES                                                                  
C C 6 4 9.0                                                                     
H H 1 1 9.0                                                                     
Li Li 3 5 9.0                                                                   
%ENDBLOCK SPECIES                                                               
%BLOCK SPECIES_POT                                                              
C "~/pp/paw/c_pbe_abinit.paw"                                                   
H "~/pp/paw/h_pbe_abinit.paw"                                                   
Li "~/pp/paw/li_pbe_abinit.paw"                                                 
%ENDBLOCK SPECIES_POT                                                           
%BLOCK SPECIES_ATOMIC_SET                                                       
C "SOLVE conf=2s2 2p2"                                                          
H "SOLVE conf=1s1"                                                              
Li "SOLVE conf=1s2 2s1 2p0"                                                     
%ENDBLOCK SPECIES_ATOMIC_SET                                                    
%BLOCK SPECIES_LDOS_GROUPS                                                      
C                                                                               
H                                                                               
Li                                                                              
%ENDBLOCK SPECIES_LDOS_GROUPS                                                   
%BLOCK LATTICE_CART                                                             
94.486315650000      0.000000000000       0.000000000000                        
0.000000000000       94.486315650000      0.000000000000                        
0.000000000000       0.000000000000       94.486315650000                       
%ENDBLOCK LATTICE_CART                                                          
%BLOCK POSITIONS_ABS                                                            
C 42.858482 41.442194 31.377633                                                 
C 38.781254 43.729406 31.559927                                                 
C 41.529773 39.124920 30.899423                                                 
C 45.562340 41.467463 31.388027                                                 
C 37.455602 41.406902 31.109949                                                 
C 37.413051 46.049993 31.719625                                                 
C 54.970947 48.592828 31.135699                                                 
C 54.904362 53.278418 31.117356                                                 
C 53.645884 46.244010 31.235847                                                 
C 38.615650 57.793259 31.713648                                                 
C 42.642545 60.197956 31.616353                                                 
C 37.293122 55.437458 31.795105                                                 
C 53.534321 55.604148 31.263735                                                 
C 45.345736 60.221453 31.592084                                                 
C 46.934840 39.162293 31.041345                                                 
C 41.486927 43.756457 31.654119                                                 
C 34.717179 46.023952 31.501719                                                 
C 50.965856 41.540839 31.107602                                                 
C 53.593804 50.921621 31.329235                                                 
C 34.670485 50.699606 31.609294                                                 
C 41.322697 57.833424 31.817014                                                 
C 38.822040 39.120930 30.713143                                                 
C 55.008073 43.925089 30.933694                                                 
C 49.603710 43.855632 31.445411                                                 
C 37.361089 50.735921 31.891177                                                 
C 49.445982 57.911505 31.581626                                                 
C 34.597225 55.392390 31.476494                                                 
C 57.645659 48.616829 30.658684                                                 
C 50.759447 60.261098 31.282921                                                 
C 57.566090 53.296445 30.569181                                                 
C 37.234345 60.104320 31.319415                                                 
C 54.830525 57.957138 30.947365                                                 
C 50.834284 55.583106 31.572117                                                 
C 46.738399 57.891578 31.737998                                                 
C 41.260793 62.503413 31.242019                                                 
C 46.666408 62.555945 31.238283                                                 
C 46.898980 43.819080 31.586659                                                 
C 50.942487 46.211225 31.492808                                                 
C 38.736452 48.405268 31.926981                                                 
C 38.679389 53.107643 31.961868                                                 
C 49.620304 39.211718 30.907271                                                 
C 33.365644 48.338038 31.427925                                                 
C 42.914044 36.808977 30.528739                                                 
C 53.657709 41.593389 30.818036                                                 
C 34.747289 41.386953 30.948621                                                 
C 33.310036 53.028842 31.351462                                                 
C 45.610019 36.824294 30.641843                                                 
C 33.385785 43.679656 31.205426                                                 
C 58.925593 50.968986 30.302313                                                 
C 53.442268 60.266469 30.961840                                                 
C 49.354893 62.564107 31.080973                                                 
C 38.557083 62.453846 31.061496                                                 
C 50.895834 50.894305 31.616941                                                 
C 42.708178 55.506896 31.966667                                                 
C 42.818538 46.109656 31.876167                                                 
C 57.695960 43.946305 30.570067                                                 
C 59.009592 46.288015 30.379742                                                 
C 33.222759 57.694797 31.041681                                                 
C 34.522203 60.048355 31.031434                                                 
C 58.852721 55.666131 30.185384                                                 
C 49.512754 53.226161 31.726902                                                 
C 45.421034 55.534028 31.905985                                                 
C 57.492228 57.987418 30.404110                                                 
C 49.567621 48.534436 31.683281                                                 
C 41.385941 53.139646 32.047350                                                 
C 42.583349 64.839405 30.840711                                                 
C 41.443212 48.440503 32.006415                                                 
C 45.526522 46.143544 31.813857                                                 
C 45.282450 64.863440 30.848743                                                 
C 37.482677 36.785820 30.089454                                                 
C 46.806187 53.201301 31.905926                                                 
C 42.769565 50.803335 32.057950                                                 
C 46.859518 48.503742 31.861874                                                 
C 41.567592 34.465826 30.002616                                                 
C 33.411160 39.081671 30.395959                                                 
C 50.983117 36.898106 30.410430                                                 
C 55.016065 39.289190 30.290463                                                 
C 30.674071 48.299151 30.988155                                                 
C 46.989026 34.504729 30.218514                                                 
C 30.627415 52.993427 30.834993                                                 
C 30.692134 43.648414 30.989933                                                 
C 45.479935 50.834948 31.984654                                                 
C 61.601235 50.993906 29.607536                                                 
C 38.884252 34.505821 29.855697                                                 
C 34.811754 36.826581 29.925457                                                 
C 37.156071 64.770284 30.494918                                                 
C 59.056490 41.602834 30.229917                                                 
C 54.741449 62.610277 30.449857                                                 
C 50.657439 64.892708 30.529621                                                 
C 61.683657 46.306542 29.744092                                                 
C 30.528539 57.653435 30.620064                                                 
C 61.524612 55.685871 29.532103                                                 
C 33.115254 62.371948 30.677866                                                 
C 41.194276 67.146729 30.291230                                                 
C 58.781020 60.349150 29.933343                                                 
C 46.609492 67.194915 30.324228                                                 
C 49.672086 34.591297 30.220882                                                 
C 29.393192 45.979140 30.860526                                                 
C 62.919035 48.675526 29.375494                                                 
C 53.674534 36.942076 30.357354                                                 
C 62.845369 53.353906 29.343048                                                 
C 57.673503 39.311455 30.188737                                                 
C 29.306560 50.637527 30.917959                                                 
C 42.987912 32.186147 29.776071                                                 
C 34.470924 64.691013 30.484106                                                 
C 38.501322 67.062974 30.142624                                                 
C 29.272193 55.282267 30.697717                                                 
C 30.722971 39.078419 30.522742                                                 
C 45.638766 32.217881 29.824019                                                 
C 29.401186 41.310806 30.822628                                                 
C 57.372258 62.634003 30.075315                                                 
C 53.360778 64.933049 30.538893                                                 
C 49.292147 67.156524 30.246254                                                 
H 37.869806 32.731563 29.464981                                                 
H 33.794418 35.081120 29.415331                                                 
C 63.005568 43.964776 29.572130                                                 
C 61.713430 41.651507 29.839290                                                 
C 62.758093 58.058269 29.207812                                                 
C 29.161915 59.980809 30.612216                                                 
C 30.428995 62.288219 30.687266                                                 
C 61.402071 60.330169 29.346835                                                 
C 42.562208 69.437943 29.969241                                                 
C 45.213277 69.453203 29.935553                                                 
H 64.871195 53.378470 28.866952                                                 
H 64.926950 48.698395 28.819812                                                 
H 50.722086 32.860371 29.691348                                                 
H 41.961752 30.401496 29.477508                                                 
H 29.709150 37.269989 30.321646                                                 
H 27.350201 45.968135 30.383648                                                 
H 37.447112 68.793589 29.664267                                                 
H 33.411085 66.453625 30.154440                                                 
H 58.693329 37.518438 29.871763                                                 
H 27.196379 55.237167 30.495837                                                 
H 46.709323 30.445388 29.617242                                                 
H 54.670820 35.242559 29.652683                                                 
H 27.319010 41.313631 30.869308                                                 
H 27.367046 50.626140 30.130953                                                 
H 58.303948 64.417815 29.509623                                                 
H 50.303454 68.898297 29.686417                                                 
H 65.054429 43.992683 29.199701                                                 
H 62.740999 39.845081 29.715623                                                 
H 54.293944 66.625226 29.731095                                                 
H 64.791225 58.069493 28.766502                                                 
H 29.395405 64.093758 30.764312                                                 
H 27.083909 59.924618 30.743149                                                 
H 41.500000 71.198256 29.649618                                                 
H 62.368807 62.145048 29.025794                                                 
H 46.244366 71.231344 29.622928                                                 
C 44.210727 39.024271 37.269852                                                 
C 36.029679 43.676077 37.452002                                                 
C 40.126203 41.370782 37.417954                                                 
C 41.511268 39.047678 37.306800                                                 
C 49.653551 39.035600 37.071843                                                 
C 37.421276 41.367370 37.338624                                                 
C 48.273786 41.400032 37.100919                                                 
C 53.739699 41.430415 37.151630                                                 
C 45.551137 41.381562 37.225924                                                 
C 52.364832 43.768892 37.108781                                                 
C 36.002807 48.333510 37.644612                                                 
C 37.365569 46.026046 37.646895                                                 
C 45.583406 36.676757 37.243434                                                 
C 35.933299 53.052908 37.494477                                                 
C 33.275065 48.323395 37.527746                                                 
C 53.687497 46.125428 37.031897                                                 
C 52.391318 39.069731 37.094756                                                 
C 33.185837 53.056917 37.608862                                                 
C 56.417000 46.143849 36.968547                                                 
C 33.319114 43.647597 37.289449                                                 
C 49.619409 43.754566 37.130125                                                 
C 37.264976 55.424316 37.581371                                                 
C 48.307371 36.687647 37.196535                                                 
C 41.455381 43.718225 37.565908                                                 
C 37.341714 50.702253 37.660662                                                 
C 35.876008 57.777662 37.661357                                                 
C 56.460632 41.430340 37.171278                                                 
C 56.358436 50.867397 36.935644                                                 
C 53.645966 50.849185 37.064624                                                 
C 53.608319 55.573970 37.114781                                                 
C 31.873802 50.665078 37.665543                                                 
C 45.396148 60.217564 37.235603                                                 
C 41.326625 57.811797 37.366868                                                 
C 57.790702 43.799049 37.011866                                                 
C 31.944450 45.964589 37.401576                                                 
C 52.220229 57.897188 37.184068                                                 
C 44.168079 43.727881 37.419516                                                 
C 48.115839 60.234749 37.232265                                                 
C 40.087824 46.046251 37.709612                                                 
C 39.952385 60.142813 37.511382                                                 
C 49.496913 57.891334 37.171604                                                 
C 52.305735 48.483082 37.042243                                                 
C 57.742630 48.515962 36.867294                                                 
C 39.987011 55.444814 37.553947                                                 
C 56.330209 55.591677 37.018675                                                 
C 52.257864 53.190420 37.198927                                                 
C 44.049530 57.844254 37.216437                                                 
C 40.172260 36.685192 37.184898                                                 
C 31.804663 55.407235 37.656557                                                 
C 44.011145 62.556988 37.388484                                                 
C 36.065500 39.008971 37.147743                                                 
C 33.151658 57.781719 37.647592                                                 
C 37.257812 60.098613 37.728803                                                 
C 57.694032 53.237442 36.922591                                                 
C 41.292069 62.499240 37.486113                                                 
C 48.244803 46.107310 37.314059                                                 
C 40.042096 50.740108 37.798240                                                 
C 48.137154 55.515829 37.262762                                                 
C 44.217410 34.288746 37.298739                                                 
C 53.778058 36.701742 37.279814                                                 
C 53.587136 60.273582 37.225614                                                 
C 49.580592 48.474669 37.324292                                                 
C 49.464251 62.614015 37.339029                                                 
C 41.379469 53.103829 37.722770                                                 
C 45.422192 55.501578 37.387335                                                 
C 49.523650 53.174048 37.359379                                                 
C 45.512090 46.096844 37.494328                                                 
C 41.424263 48.399941 37.802791                                                 
C 31.949643 41.292370 37.041350                                                 
C 37.461156 36.691780 37.071625                                                 
C 49.682390 34.266381 37.305539                                                 
C 41.519598 34.354817 37.159827                                                 
C 57.687807 57.955957 37.089006                                                 
C 57.891746 39.051003 37.219070                                                 
C 33.373405 39.002417 37.139501                                                 
C 45.350119 64.944453 37.451055                                                 
C 44.097082 53.133340 37.691489                                                 
C 48.193987 50.804593 37.520700                                                 
C 29.125427 50.649504 37.895290                                                 
C 44.142874 48.428616 37.738208                                                 
C 60.454368 48.550272 36.783421                                                 
C 52.200084 62.612049 37.326836                                                 
C 45.486744 50.788539 37.718437                                                 
C 60.537419 43.801402 36.981756                                                 
C 29.182754 45.910556 37.569344                                                 
C 56.295974 60.281049 37.245126                                                 
C 56.504487 36.712341 37.287667                                                 
C 29.012286 55.442499 37.690098                                                 
C 48.093442 64.951072 37.486140                                                 
C 60.402376 53.272912 36.830697                                                 
C 52.408937 34.351674 37.519651                                                 
C 35.873767 62.443915 37.712435                                                 
C 31.729305 60.137383 37.598922                                                 
C 39.925606 64.854056 37.441700                                                 
C 45.597815 31.966554 37.178757                                                 
C 27.764899 53.011774 37.968672                                                 
C 61.862537 46.198779 36.731286                                                 
C 27.853258 48.263768 37.996394                                                 
C 61.763813 50.921597 36.603136                                                 
C 48.302471 31.987617 37.195968                                                 
C 29.276587 41.308715 36.931421                                                 
C 33.152002 62.460202 37.617615                                                 
C 60.550275 39.108407 36.989509                                                 
C 37.217644 64.782227 37.389651                                                 
C 60.431094 57.999257 36.965120                                                 
H 36.440732 34.869346 37.248182                                                 
H 40.457332 32.556172 37.164675                                                 
C 61.869593 41.446539 36.893127                                                 
C 43.961134 67.319293 37.510307                                                 
H 32.345316 37.181304 37.253252                                                 
C 61.734078 55.641758 36.599964                                                 
C 27.919064 43.571331 37.306459                                                 
C 41.243187 67.220632 37.375099                                                 
H 57.536357 34.911797 37.023692                                                 
C 27.692504 57.783572 37.662798                                                 
C 29.033923 60.123946 37.776854                                                 
H 53.464853 32.544399 37.599053                                                 
C 53.551432 64.994398 37.574956                                                 
H 44.554320 30.165684 37.204109                                                 
H 25.684898 52.966226 38.050181                                                 
C 57.686877 62.683345 37.455452                                                 
C 49.418397 67.397062 37.572026                                                 
H 63.858989 46.252517 37.366965                                                 
H 28.265912 39.513219 36.670262                                                 
H 25.807310 48.218286 38.403796                                                 
H 63.857704 50.924809 36.837903                                                 
H 49.329134 30.176159 37.194751                                                 
H 61.596023 37.312444 36.901320                                                 
H 32.170274 64.231944 37.070380                                                 
H 36.140178 66.593818 37.362587                                                 
H 63.960358 41.457478 36.928271                                                 
H 63.829881 55.643585 36.496312                                                 
H 25.837961 43.543180 37.384824                                                 
H 25.614841 57.731740 37.482620                                                 
C 61.723556 60.364929 36.916044                                                 
H 40.162752 68.966387 37.755305                                                 
C 45.301361 69.677802 37.429359                                                 
H 28.041372 61.926672 37.438175                                                 
C 52.175796 67.353057 37.512144                                                 
C 56.241159 64.957810 37.830484                                                 
C 60.349310 62.681504 37.215265                                                 
C 48.004791 69.684785 37.553958                                                 
H 63.804008 60.382238 36.868838                                                 
H 44.217776 71.456355 37.559433                                                 
H 53.213379 69.138443 37.830518                                                 
H 57.249758 66.756169 38.143442                                                 
H 61.370435 64.492312 37.294553                                                 
H 49.039289 71.495119 37.630999                                                 
H 28.461841 38.057960 44.091148                                                 
H 40.223928 30.025438 44.409670                                                 
H 32.385145 35.366305 43.596421                                                 
H 36.284422 32.673754 43.749636                                                 
H 44.950372 29.732505 44.646063                                                 
H 26.389614 42.376663 44.210090                                                 
C 41.379831 31.760729 44.384396                                                 
C 29.640554 39.771791 44.133299                                                 
H 61.917239 37.834615 43.550626                                                 
C 33.539352 37.076027 43.909748                                                 
C 37.443778 34.396042 43.961286                                                 
C 44.015047 31.586855 44.479418                                                 
H 49.140587 31.721720 44.066258                                                 
H 64.575017 41.825351 43.432739                                                 
C 28.461209 42.216487 44.231281                                                 
H 65.604660 55.962855 43.765792                                                 
H 26.823069 47.136531 44.178654                                                 
H 27.838522 61.030886 44.785686                                                 
H 53.364956 33.747345 43.875423                                                 
H 57.634590 35.795521 44.109658                                                 
H 30.481532 65.003150 44.684361                                                 
H 27.237342 51.759779 44.755533                                                 
H 65.283661 51.237296 43.501074                                                 
H 43.252506 71.242063 44.463280                                                 
H 63.521772 60.234680 44.107809                                                 
H 27.549820 56.313940 44.931523                                                 
H 64.902089 46.560316 43.287081                                                 
C 32.295360 39.503870 44.094388                                                 
C 40.168850 34.141524 44.195652                                                 
H 48.055423 70.921698 44.612963                                                 
C 36.240696 36.825223 43.992919                                                 
H 38.985748 69.163224 44.343620                                                 
C 61.004586 39.697925 43.653361                                                 
C 62.504082 41.958664 43.560789                                                 
H 34.758869 67.139816 44.576326                                                 
C 48.235316 33.611158 44.184933                                                 
C 63.526642 56.101971 43.824203                                                 
C 28.889370 46.928040 44.428165                                                 
H 59.625326 62.889953 44.460242                                                 
C 29.915478 60.902707 44.763424                                                 
C 45.537632 33.768969 44.365726                                                 
H 51.957859 68.183461 44.925879                                                 
H 55.794272 65.473682 44.745998                                                 
C 29.967327 44.453398 44.228798                                                 
C 31.412128 63.143912 44.609931                                                 
C 52.471646 35.653722 44.000828                                                 
C 62.359281 58.503410 44.028531                                                 
C 56.734802 37.662001 43.796299                                                 
C 44.174617 69.375393 44.442760                                                 
C 29.326158 51.572929 44.778473                                                 
C 63.199448 51.387783 43.565991                                                 
C 29.630862 56.200844 44.770437                                                 
C 62.826762 46.693674 43.414639                                                 
C 46.882962 69.202343 44.562748                                                 
C 49.749226 35.819841 43.964759                                                 
C 58.310332 39.854502 43.686086                                                 
C 39.907950 67.297281 44.279812                                                 
C 54.040371 37.874552 43.667749                                                 
C 30.432107 49.137552 44.549167                                                 
C 61.386477 44.391387 43.536508                                                 
C 35.665606 65.258047 44.440765                                                 
C 41.685986 36.440620 44.175681                                                 
C 62.046440 53.861313 43.823145                                                 
C 33.892138 41.779194 44.127787                                                 
C 31.071467 58.480933 44.597716                                                 
C 45.426972 50.327878 43.710789                                                 
C 30.808450 53.796287 44.927147                                                 
C 37.783885 39.097439 44.038739                                                 
C 61.709170 49.134432 43.526283                                                 
C 46.958374 52.578344 43.839925                                                 
C 58.473154 61.146037 44.361413                                                 
C 42.723454 50.537959 43.771334                                                 
C 46.591569 47.878033 43.746555                                                 
C 44.373597 36.242758 44.179083                                                 
C 34.093190 63.012760 44.431355                                                 
C 50.753016 66.472754 44.830982                                                 
C 42.631220 67.187254 44.316014                                                 
C 32.718827 44.238940 44.162988                                                 
C 54.608391 63.758809 44.614620                                                 
C 59.696694 58.722376 44.193454                                                 
C 45.787707 55.021720 44.097168                                                 
C 49.658969 52.370745 43.934171                                                 
C 41.191594 48.284947 43.739407                                                 
C 45.058882 45.630118 43.814650                                                 
C 38.365835 65.096753 44.271836                                                 
C 41.570523 52.972029 44.090505                                                 
C 49.298141 47.671006 43.878411                                                 
C 48.071057 66.768217 44.517128                                                 
C 40.500219 38.892410 44.020802                                                 
C 36.590406 41.565356 44.042968                                                 
C 42.352951 45.828918 43.724725                                                 
C 43.090775 55.206281 44.317596                                                 
C 50.835099 49.924313 43.917485                                                 
C 48.580524 38.286642 43.987596                                                 
C 55.796289 61.366281 44.521636                                                 
C 33.144475 48.911747 44.379716                                                 
C 52.833976 40.335100 43.703901                                                 
C 57.089307 42.325946 43.674702                                                 
C 51.931768 64.030720 44.398593                                                 
C 58.612348 44.605584 43.682558                                                 
C 45.878643 38.481863 44.029394                                                 
C 46.225495 43.180556 44.027002                                                 
C 38.499826 48.479831 43.906426                                                 
C 34.272038 46.463759 44.138728                                                 
C 33.501299 53.590296 44.637766                                                 
C 50.475887 45.210153 43.925108                                                 
C 38.872155 53.180999 44.234949                                                 
C 51.200587 54.612828 44.212311                                                 
C 40.826190 43.592772 43.800495                                                 
C 50.126255 40.526108 43.886856                                                 
C 47.329357 57.279559 44.197264                                                 
C 33.812330 58.293695 44.483501                                                 
C 59.314067 54.033965 43.949403                                                 
C 42.013492 41.131093 43.888046                                                 
C 38.137357 43.805459 43.886288                                                 
C 48.942155 42.971621 43.974527                                                 
C 44.696021 40.925311 43.957372                                                 
C 58.964513 49.337687 43.722708                                                 
C 37.351120 50.930474 44.178575                                                 
C 35.328856 60.541001 44.360328                                                 
C 36.971906 46.247334 43.943508                                                 
C 34.656716 51.142659 44.408725                                                 
C 54.380999 42.556538 43.720073                                                 
C 53.554759 49.696637 44.002663                                                 
C 50.017700 57.064707 44.334352                                                 
C 43.808519 64.652784 44.285423                                                 
C 41.916603 57.695359 44.389196                                                 
C 58.133790 56.458578 44.137573                                                 
C 34.989714 55.856118 44.493589                                                 
C 53.204958 44.993708 43.876409                                                 
C 57.451315 47.048312 43.776077                                                 
C 39.543797 62.600585 44.199157                                                 
C 37.703661 55.657555 44.373050                                                 
C 57.791604 51.777017 43.930165                                                 
C 54.715297 47.258310 43.906141                                                 
C 46.544788 64.483676 44.351435                                                 
C 53.908762 54.406503 44.197558                                                 
C 55.088083 51.966233 44.112661                                                 
C 39.205979 57.898998 44.331829                                                 
C 46.157734 59.745228 44.292998                                                 
C 38.021547 60.346886 44.255399                                                 
C 54.254010 59.103151 44.358353                                                 
C 43.450568 59.918403 44.262492                                                 
C 50.388232 61.757263 44.371889                                                 
C 42.282030 62.412616 44.220460                                                 
C 51.566658 59.330749 44.363969                                                 
C 55.443553 56.669421 44.231187                                                 
C 47.689868 61.983921 44.448936                                                 
H 43.909109 29.842481 50.358841                                                 
H 28.070674 39.492624 51.859189                                                 
H 48.636052 29.711519 50.576128                                                 
H 60.943088 36.507295 51.258829                                                 
H 63.376462 40.574865 51.423720                                                 
H 25.763986 43.633953 52.031393                                                 
H 28.495808 61.687842 52.242080                                                 
H 26.023138 57.631576 52.230199                                                 
H 36.137179 34.854366 51.881726                                                 
H 40.023076 32.318869 51.185775                                                 
H 32.114001 37.144467 51.818044                                                 
H 63.551414 49.864472 51.240158                                                 
H 36.652219 66.105959 52.080654                                                 
H 63.764462 59.100579 51.950546                                                 
H 44.777755 70.582779 52.518546                                                 
H 63.482521 45.254018 51.173024                                                 
H 32.613710 63.890594 52.200190                                                 
H 52.710014 31.995110 51.329113                                                 
H 56.835973 34.229943 51.131023                                                 
H 63.642383 54.459964 51.579598                                                 
H 61.484500 63.249131 52.263712                                                 
H 40.679256 68.367563 52.060344                                                 
H 49.515558 70.518885 52.442197                                                 
H 25.935106 52.973218 52.069854                                                 
H 25.898406 48.317259 52.330361                                                 
C 45.018036 31.604398 50.414288                                                 
C 47.628719 31.536378 50.537781                                                 
C 29.107941 41.283669 51.640551                                                 
C 59.959838 38.329247 51.049244                                                 
C 27.819299 43.587446 51.710544                                                 
C 61.312205 40.597817 51.162607                                                 
C 28.078865 57.612937 51.911767                                                 
C 29.455750 59.867673 51.929368                                                 
H 57.513908 65.685086 52.170105                                                 
H 53.544785 68.128845 52.133336                                                 
C 41.071750 34.084510 50.748105                                                 
C 37.047589 36.437130 50.853643                                                 
C 33.120649 38.888503 51.243506                                                 
C 61.705542 59.197330 51.655256                                                 
C 45.794506 68.815890 52.103424                                                 
C 60.440686 61.505303 51.820368                                                 
C 51.730034 33.803862 50.985072                                                 
C 48.437391 68.783103 52.052078                                                 
C 55.844522 36.042871 50.878981                                                 
C 61.420453 45.286506 50.870759                                                 
C 61.535875 49.926624 50.679324                                                 
C 33.544565 62.134260 51.547126                                                 
C 37.603749 64.367541 51.408723                                                 
C 27.898692 48.280828 51.749264                                                 
C 27.976224 52.939126 51.650127                                                 
C 61.629440 54.551243 51.017527                                                 
C 41.681358 66.591794 51.631964                                                 
C 43.717559 33.944469 50.434170                                                 
C 49.051178 33.819857 50.701819                                                 
C 31.759257 41.200146 51.235499                                                 
C 57.273634 38.315006 50.831185                                                 
C 29.139892 45.926584 51.469280                                                 
C 60.071619 42.968629 50.872259                                                 
C 29.308230 55.242057 51.523556                                                 
C 39.764200 36.389152 50.676553                                                 
C 32.108920 59.871771 51.489229                                                 
C 35.749079 38.816607 50.893557                                                 
C 53.162694 36.058285 50.807169                                                 
C 56.452091 63.947813 51.733521                                                 
C 52.475148 66.382530 51.766519                                                 
C 29.230723 50.606693 51.498504                                                 
C 45.368984 50.296124 49.425682                                                 
C 60.378606 56.922311 51.112511                                                 
C 60.165591 47.619972 50.721919                                                 
C 44.364266 66.588784 51.613392                                                 
C 36.195912 62.093560 51.289408                                                 
C 60.262587 52.290715 50.731474                                                 
C 40.286645 64.351749 51.365568                                                 
C 57.760372 61.651132 51.490392                                                 
C 49.800775 66.487245 51.660776                                                 
C 44.064278 52.667674 49.529134                                                 
C 48.081432 50.236681 49.468220                                                 
C 43.962376 47.978018 49.418988                                                 
C 53.807389 64.059252 51.560455                                                 
C 45.472206 54.979819 49.657678                                                 
C 49.484579 52.552632 49.594224                                                 
C 45.100406 36.252080 50.178221                                                 
C 41.351094 52.716713 49.629775                                                 
C 49.384964 47.863839 49.497467                                                 
C 47.776750 36.188274 50.281438                                                 
C 33.121746 43.520186 50.775657                                                 
C 41.254115 48.033501 49.511560                                                 
C 45.273232 45.605070 49.452199                                                 
C 31.818125 45.870921 50.891442                                                 
C 55.974154 40.707939 50.485215                                                 
C 57.367088 43.014122 50.469079                                                 
C 31.994712 55.209209 51.014027                                                 
C 33.384603 57.512282 50.971146                                                 
C 48.183163 54.920899 49.693136                                                 
C 39.948217 50.404013 49.629555                                                 
C 47.981276 45.545661 49.493532                                                 
C 51.856151 38.448899 50.361796                                                 
C 41.120081 38.688723 50.146776                                                 
C 37.112438 41.112199 50.320177                                                 
C 57.679983 57.012945 50.713004                                                 
C 31.904449 50.549605 50.841406                                                 
C 45.685733 64.255996 51.067458                                                 
C 57.457553 47.686494 50.269359                                                 
C 56.380574 59.359609 50.901312                                                 
C 37.475256 59.752449 50.671269                                                 
C 48.380444 64.201567 51.114890                                                 
C 57.562544 52.366650 50.284503                                                 
C 41.584326 62.004890 50.756234                                                 
C 40.050148 55.081588 49.859982                                                 
C 44.171977 57.344818 49.882875                                                 
C 52.192138 52.490973 49.732077                                                 
C 52.089411 47.801505 49.643405                                                 
C 39.855041 45.717012 49.646741                                                 
C 49.178852 38.500557 50.094848                                                 
C 43.876821 43.289722 49.567918                                                 
C 43.795865 38.618466 49.970419                                                 
C 35.797700 43.460873 50.279752                                                 
C 53.266402 40.760142 50.199840                                                 
C 33.186204 48.194454 50.547044                                                 
C 33.272770 52.852666 50.604078                                                 
C 39.789865 41.042310 49.989182                                                 
C 41.459784 57.387353 49.989013                                                 
C 56.074504 45.376869 50.135357                                                 
C 53.489120 50.120113 49.755964                                                 
C 41.169140 43.347490 49.673410                                                 
C 36.069611 57.474207 50.519217                                                 
C 52.392017 61.761499 50.962703                                                 
C 37.244300 50.452150 49.895529                                                 
C 56.183212 50.058877 50.045348                                                 
C 49.284664 43.175474 49.650811                                                 
C 40.164207 59.728663 50.410960                                                 
C 49.589894 57.226106 49.965122                                                 
C 56.285082 54.721974 50.258005                                                 
C 44.281563 61.976240 50.597339                                                 
C 45.188168 40.925551 49.715856                                                 
C 37.159503 45.769896 49.929275                                                 
C 37.348769 55.123385 50.119022                                                 
C 53.385168 45.430020 49.812668                                                 
C 47.885260 40.860704 49.761463                                                 
C 35.850875 48.139705 50.061898                                                 
C 51.982380 43.118919 49.829067                                                 
C 35.949919 52.813342 50.153605                                                 
C 45.581714 59.641733 50.161616                                                 
C 53.687233 59.436672 50.599312                                                 
C 49.691744 61.848487 50.722944                                                 
C 53.591987 54.798723 49.983967                                                 
C 48.289828 59.581693 50.216241                                                 
C 52.293555 57.158992 50.126562                                                 
Li 59.778151 41.411915 40.304909                                                
Li 31.812109 60.660440 41.265491                                                
Li 30.392126 42.184299 40.729507                                                
Li 46.181265 67.836752 40.916573                                                
Li 59.835538 60.184779 40.496978                                                
Li 54.391005 62.158888 40.813222                                                
Li 41.208867 65.002153 41.034700                                                
Li 39.430571 35.986087 40.807489                                                
Li 29.903316 53.902552 41.218525                                                
Li 30.939922 47.855689 40.894190                                                
Li 51.031072 37.915556 40.645571                                                
Li 62.711765 53.499235 40.036761                                                
Li 62.731694 52.521094 47.547997                                                
Li 59.703489 46.923117 40.303239                                                
Li 35.115143 39.474945 40.858371                                                
Li 46.728255 33.969631 40.512454                                                
Li 55.244201 35.293635 40.759269                                                
Li 34.762967 64.788794 40.694669                                                
Li 56.209531 64.169821 33.810647                                                
Li 60.432941 46.946581 46.912857                                                
Li 51.362605 67.039601 33.757474                                                
Li 51.834860 64.696599 48.165076                                                
Li 34.768093 64.306284 48.269707                                                
Li 41.043411 64.876569 47.570941                                                
Li 59.716297 59.810861 48.059674                                                
Li 46.747297 67.627048 48.289553                                                
Li 28.250055 49.182004 47.881306                                                
Li 59.805460 40.778375 47.362700                                                
Li 34.053583 36.889319 47.862127                                                
Li 27.988584 48.001299 34.012329                                                
Li 44.224561 68.086606 33.666624                                                
Li 39.894898 36.082652 33.457796                                                
Li 61.012454 58.643650 33.076284                                                
Li 29.864295 43.061008 48.003321                                                
Li 51.975846 34.641468 33.575060                                                
Li 29.544383 53.065188 34.449755                                                
Li 62.406758 48.464881 33.315716                                                
Li 54.798121 37.953204 47.408949                                                
Li 30.033519 58.099244 48.333097                                                
Li 35.355666 62.811749 34.003292                                                
Li 44.552712 33.593882 33.456929                                                
Li 34.666603 37.308246 33.825679                                                
Li 55.768451 38.511165 33.877497                                                
Li 55.360550 53.249206 40.351130                                                
Li 61.106386 53.424841 33.068792                                                
Li 38.461999 33.990465 47.801338                                                
Li 51.987150 47.357176 40.721221                                                
Li 39.037148 66.563435 33.993966                                                
Li 50.837047 33.785360 47.176491                                                
Li 50.093155 55.918267 40.613542                                                
Li 62.122343 43.436268 33.429020                                                
Li 47.077217 43.494661 40.346834                                                
Li 51.404545 66.571108 41.117270                                                
Li 46.606555 62.137216 40.676394                                                
Li 36.316429 53.568400 41.220196                                                
Li 42.912802 56.424348 40.724237                                                
Li 30.017867 58.547268 34.383891                                                
Li 39.993600 44.242920 40.743480                                                
%ENDBLOCK POSITIONS_ABS                                                         

--------------------------------------------------------------------------------
-------------------------------- END INPUT FILE --------------------------------
--------------------------------------------------------------------------------


 
<<<<<<<<<<<<<<<<<<<<<<<<<<<<<<<<< Full system >>>>>>>>>>>>>>>>>>>>>>>>>>>>>>>>>>
<<<<<<<<<<<<<<<<<<<<<<<<<<< PAW Dataset information >>>>>>>>>>>>>>>>>>>>>>>>>>>
File: ~/pp/paw/c_pbe_abinit.paw; rc = 1.25 bohr; shape type =  3; rshape = 1.25 bohr;
  Atomic number:  6;  ionic charge:  4.000000
    Partial Wave 1: l = 0
    Partial Wave 2: l = 0
    Partial Wave 3: l = 1
    Partial Wave 4: l = 1
  Core charge supplied for Nonlinear Core Corrections
File: ~/pp/paw/h_pbe_abinit.paw; rc = 0.90 bohr; shape type =  3; rshape = 0.90 bohr;
  Atomic number:  1;  ionic charge:  1.000000
    Partial Wave 1: l = 0
    Partial Wave 2: l = 0
File: ~/pp/paw/li_pbe_abinit.paw; rc = 1.42 bohr; shape type =  3; rshape = 1.42 bohr;
  Atomic number:  3;  ionic charge:  3.000000
    Partial Wave 1: l = 0
    Partial Wave 2: l = 0
    Partial Wave 3: l = 0
    Partial Wave 4: l = 1
    Partial Wave 5: l = 1
<<<<<<<<<<<<<<<<<<<<<<<<<<<<<<<<<<<<<<< >>>>>>>>>>>>>>>>>>>>>>>>>>>>>>>>>>>>>>>

-------------------------- Atom counting information ---------------------------
Symbol    Natoms    Nngwfs    Nprojs
  C        484      1936      3872
  H        108       108       216
  Li        58       290       522
.......   ......    ......    ......
Totals:    650      2334      4610
--------------------------------------------------------------------------------

=============================== PSINC grid sizes ===============================
                      Simulation cell:  189 x 189 x 189
                              FFT-box:  117 x 117 x 117
                                  PPD:    7 x   7 x   1
Grid space d1=  0.499927596032a0 (KE cutoff=  30.39413Eh = 827.06648eV)
Grid space d2=  0.499927596032a0 (KE cutoff=  30.39413Eh = 827.06648eV)
Grid space d3=  0.499927596032a0 (KE cutoff=  30.39413Eh = 827.06648eV)
================================================================================
  
WARNING in cell_grid_distribute:
Average of less than one 23-slab per proc, so workload cannot be
equally balanced between procs.

********************* Fourier parallelisation information **********************
       Coarse grid (whole simulation cell) dimensions:    189   189   189
          Real-space ('12') slabs/proc (min max mean):      1     2     1
         Recip-space ('23') slabs/proc (min max mean):      0     1     0
********************************************************************************

********************* Fourier parallelisation information **********************
       Double grid (whole simulation cell) dimensions:    378   378   378
          Real-space ('12') slabs/proc (min max mean):      2     3     2
         Recip-space ('23') slabs/proc (min max mean):      1     2     1
********************************************************************************

Atom SCF Calculation for C  : Z (AE atom) =   6 : Z (PS atom) =   4
Config String: 2s2 2p2
Orbitals (num,occ):  2     2.00 2.00
Orbitals   (num,l):  2        0    1
Real-space Grid (nr,dr,rmax): 1377    0.0065406977    9.0000000000
Spherical Bessel Basis (nsws,lmax,cutoff):   37    2  183.0099912382
Confining potential (l,width,scale):  0    3.0000000000  100.0000000000
Confining potential (l,width,scale):  1    3.0000000000  100.0000000000
  1         -5.4795186097   -1.3252230651    4.5135247139   -1.6370402178
  2         -5.4480873667   -1.4027986130    4.4305957006   -1.6109824140
  3         -5.4553175168   -1.4212842775    4.4102621601   -1.6059044058
  4         -5.4627851864   -1.4247099971    4.4065125496   -1.6052912254
  5         -5.4662317525   -1.4266823431    4.4043718731   -1.6049357348
  6         -5.4679531179   -1.4277361345    4.4032352159   -1.6047498153
  7         -5.4688370531   -1.4282876632    4.4026436340   -1.6046546171
  8         -5.4692962224   -1.4285743132    4.4023378281   -1.6046060967
  9         -5.4695360875   -1.4287229388    4.4021801230   -1.6045813828
 10         -5.4696617783   -1.4287999625    4.4020988354   -1.6045687883
 11         -5.4697277645   -1.4288398966    4.4020569195   -1.6045623641
 12         -5.4697624500   -1.4288606199    4.4020352864   -1.6045590836
 13         -5.4697806994   -1.4288713865    4.4020241086   -1.6045574064
 14         -5.4697903086   -1.4288769875    4.4020183254   -1.6045565478
 15         -5.4697953717   -1.4288799052    4.4020153292   -1.6045561077
 16         -5.4697980412   -1.4288814272    4.4020137746   -1.6045558818
 17         -5.4697994496   -1.4288822223    4.4020129668   -1.6045557657
 18         -5.4698001930   -1.4288826382    4.4020125465   -1.6045557059
 19         -5.4698005858   -1.4288828561    4.4020123274   -1.6045556751
 20         -5.4698007933   -1.4288829704    4.4020122131   -1.6045556592
 21         -5.4698009031   -1.4288830304    4.4020121533   -1.6045556509
 22         -5.4698009612   -1.4288830620    4.4020121220   -1.6045556467
Atom SCF converged after  22 iterations to a total energy of     -5.46980096

Atom SCF Calculation for H  : Z (AE atom) =   1 : Z (PS atom) =   1
Config String: 1s1
Orbitals (num,occ):  1     1.00
Orbitals   (num,l):  1        0
Real-space Grid (nr,dr,rmax): 1377    0.0065406977    9.0000000000
Spherical Bessel Basis (nsws,lmax,cutoff):   37    1  183.0099912382
Confining potential (l,width,scale):  0    3.0000000000  100.0000000000
  1         -0.3687944832   -0.2607687933    0.2820952946   -0.2613406499
  2         -0.4328656062   -0.2590521405    0.2895573663   -0.2701762133
  3         -0.4633856573   -0.2560091938    0.2934204754   -0.2757429988
  4         -0.4750266404   -0.2549676794    0.2946557510   -0.2779015032
  5         -0.4793045155   -0.2546870695    0.2949704774   -0.2786577123
  6         -0.4808919118   -0.2546234645    0.2950332622   -0.2789201171
  7         -0.4814942533   -0.2546130669    0.2950388368   -0.2790132353
  8         -0.4817280090   -0.2546133926    0.2950352123   -0.2790473458
  9         -0.4818204053   -0.2546148712    0.2950319888   -0.2790602287
 10         -0.4818574273   -0.2546158825    0.2950301416   -0.2790652181
 11         -0.4818724050   -0.2546164247    0.2950292178   -0.2790671871
 12         -0.4818785049   -0.2546166894    0.2950287833   -0.2790679748
 13         -0.4818810009   -0.2546168128    0.2950285855   -0.2790682928
 14         -0.4818820255   -0.2546168689    0.2950284970   -0.2790684221
 15         -0.4818824471   -0.2546168940    0.2950284580   -0.2790684748
 16         -0.4818826210   -0.2546169051    0.2950284408   -0.2790684964
 17         -0.4818826928   -0.2546169100    0.2950284333   -0.2790685053
Atom SCF converged after  17 iterations to a total energy of     -0.48188269

Atom SCF Calculation for Li : Z (AE atom) =   3 : Z (PS atom) =   3
Config String: 1s2 2s1 2p0
Orbitals (num,occ):  3     2.00 1.00 0.00
Orbitals   (num,l):  3        0    0    1
Real-space Grid (nr,dr,rmax): 1377    0.0065406977    9.0000000000
Spherical Bessel Basis (nsws,lmax,cutoff):   37    2  183.0099912382
Confining potential (l,width,scale):  0    3.0000000000  100.0000000000
Confining potential (l,width,scale):  1    3.0000000000  100.0000000000
  1         -6.1314629607   -4.7499359229    2.5388576516   -1.0480231927
  2         -7.0450508208   -4.1702030791    2.9795337774   -1.2623862962
  3         -7.3518474013   -3.9564527259    3.2037296734   -1.3880788964
  4         -7.4613386962   -3.8947565558    3.2914990517   -1.4402825036
  5         -7.5001516047   -3.8789668192    3.3221434609   -1.4602864917
  6         -7.5136113510   -3.8755528126    3.3322769691   -1.4678164580
  7         -7.5181182589   -3.8751724459    3.3354399675   -1.4706394447
  8         -7.5195538340   -3.8753832694    3.3363346353   -1.4716958846
  9         -7.5199777516   -3.8756112412    3.3365363545   -1.4720903919
 10         -7.5200869011   -3.8757624244    3.3365501247   -1.4722372325
 11         -7.5201065703   -3.8758489541    3.3365264569   -1.4722916218
 12         -7.5201049812   -3.8758952022    3.3365040630   -1.4723116262
 13         -7.5201006323   -3.8759190019    3.3364892955   -1.4723189110
 14         -7.5200980758   -3.8759285770    3.3364824548   -1.4723210036
 15         -7.5200963811   -3.8759342877    3.3364781194   -1.4723220111
 16         -7.5200953120   -3.8759376792    3.3364754203   -1.4723224913
 17         -7.5200946593   -3.8759396866    3.3364737619   -1.4723227171
 18         -7.5200942701   -3.8759408718    3.3364727530   -1.4723228213
 19         -7.5200940419   -3.8759415700    3.3364721439   -1.4723228682
 20         -7.5200939099   -3.8759419808    3.3364717784   -1.4723228886
 21         -7.5200938343   -3.8759422222    3.3364715600   -1.4723228969
Atom SCF converged after  21 iterations to a total energy of     -7.52009383

Determining parallel strategy ...
... using space-filling curve
... NGWF load balancing: max     17;  min     13;  average     15
... Projector load balancing: max     34;  min     25;  average     29
... done
Calculating Ewald energy ...
              Ewald: real-space energy =   38670.996466
        Ewald: reciprocal-space energy =   38710.879960
         Ewald: (sum_charge)**2 Energy =    3005.290010
         Ewald: (sum_charge**2) Energy =     260.845251
                          Ewald Energy =   74115.741164
Basis initialisation ...... NGWF spheres initialised
... Projector spheres initialised
... NGWF tight boxes initialised
... Projector tight boxes initialised
... Tight-boxes gathered
... NGWF basis size (local,global):     296529  47086898
... PAW projector initialisation
... done

============================= Charge Augmentation ==============================
                           Aug box size:   13 x  13 x  13
================================================================================

========================== Sparse matrix information ===========================
                        Overlap matrix filling:  37.29%
                        Density kernel filling: 100.00%
              NGWF-Proj overlap matrix filling:  10.33%
                    Aug Overlap matrix filling:  41.99%
                    Hamiltonian matrix filling:  41.99%
                  NGWF diagonal matrix filling:   0.17%
                             KS matrix filling: 100.00% 
                           KSKS matrix filling: 100.00% 
================================================================================

Sparse matrix initialisation ... done
NGWF initialisation ...... done
============ Calculation of NGWF S^-1 using Hotelling algorithm ================ 
         Iteration  |  Frobenius norm and Maximum abs value    (of I-S*S_n^-1)   
               1       0.48087766E+02     0.99773906E+00
               2       0.47873779E+02     0.99548747E+00
               3       0.47472443E+02     0.99101170E+00
               4       0.46760948E+02     0.98216567E+00
               5       0.45610234E+02     0.96486666E+00
               6       0.43960544E+02     0.93165944E+00
               7       0.41833052E+02     0.86986076E+00
               8       0.39236962E+02     0.80960970E+00
               9       0.36230496E+02     0.79412911E+00
              10       0.33094039E+02     0.77437980E+00
              11       0.30012542E+02     0.75034442E+00
              12       0.26550486E+02     0.73132655E+00
              13       0.22091580E+02     0.70149414E+00
              14       0.16488357E+02     0.66396842E+00
              15       0.10578548E+02     0.59985567E+00
              16       0.61425375E+01     0.49659953E+00
              17       0.37467955E+01     0.37312591E+00
              18       0.22374050E+01     0.29041900E+00
              19       0.11033555E+01     0.20032299E+00
              20       0.39361459E+00     0.10697835E+00
              21       0.94296440E-01     0.32257910E-01
              22       0.83902749E-02     0.29540535E-02
              23       0.70346383E-04     0.24776422E-04
              24       0.49486132E-08     0.17429302E-08
              25       0.74699327E-13     0.57731597E-14
================================================================================
Calculating core density ...
================================= Core Density =================================
               Core den box size:   21 x  21 x  21
================================================================================
 ... done
Up spin density kernel initialisation ...... done
Down spin density kernel initialisation ...... done

Writing density kernel to file "58/592nano.dkn" ... done

>>> Optimising kernel for current NGWFs:

--------------------------- Ensemble-DFT optimisation --------------------------
Running ScaLAPACK on  160 processor(s).

--------------------------------------------------------------------------------
  Iter                              Commutator    Free_energy(A=E-TS)     DeltaA
#    0                          0.001450568622   -3263.37707039502675  -3.26E+03

Step                       =       0.381966011250
Energy (E)                 =   -3263.319969143869
Entropy (-TS)              =      -0.057101251157
Free energy (A=E-TS)       =   -3263.377070395027
Est. 0K Energy 0.5*(E+A)   =   -3263.348519769448
Residual Non-orthogonality =       0.000000000000
Residual N_electrons       =       0.000000000000

Spin          Integrated_Ne            Fermi_level     Delta_Fermi_level
   1      1109.000000000000        -0.220397733728             -2.20E-01
   2      1109.000000000000        -0.220397733728             -2.20E-01

                           Spin 1           |                 Spin 2           |
     Orb |    H-eigenvalues     Occupancies |    H-eigenvalues     Occupancies |
       1 |    -1.9130389380    1.0000000000 |    -1.9130389380    1.0000000000 | 
                          ------                             ------
    1104 |    -0.2262053741    0.8622266067 |    -0.2262053741    0.8622266067 | 
    1105 |    -0.2254048189    0.8293620208 |    -0.2254048189    0.8293620208 | 
    1106 |    -0.2238441523    0.7480601378 |    -0.2238441523    0.7480601378 | 
    1107 |    -0.2230673729    0.6990978100 |    -0.2230673729    0.6990978100 | 
    1108 |    -0.2216567286    0.5981010786 |    -0.2216567286    0.5981010786 | 
                  Finite temp. Fermi level   |      Finite temp. Fermi level  
    1109 |    -0.2202218528    0.4861188654 |    -0.2202218528    0.4861188654 | 
                 - Gap at zero temperature - |     - Gap at zero temperature -
    1110 |    -0.2195104490    0.4304090696 |    -0.2195104490    0.4304090696 | 
    1111 |    -0.2192338880    0.4091419980 |    -0.2192338880    0.4091419980 | 
    1112 |    -0.2184853401    0.3534551037 |    -0.2184853401    0.3534551037 | 
    1113 |    -0.2173981355    0.2794486277 |    -0.2173981355    0.2794486277 | 
                          ------                             ------
    2334 |     0.5532815563    0.0000000000 |     0.5532815563    0.0000000000 | 

                            |  Abs_value |  Threshold | Converged
     Delta_Free_energy/atom |   5.02E+00 |   1.00E-06 |        No
     Delta_Energy/atom      |   5.02E+00 |   1.00E-04 |        No
     Delta_Entropy/atom     |   8.78E-05 |   1.00E-04 |       Yes
[...]
 H   131 -- Li  632       -0.01     -0.00      5.64432
 C   344 -- Li  620       -0.08      0.00      5.64446
 H   463 -- Li  630       -0.02     -0.00      5.64529
 C   156 -- Li  603       -0.07      0.00      5.64788
 C   223 -- Li  595       -0.08      0.00      5.64806
 C   421 -- C   576       -0.04     -0.00      5.64930
 C     5 -- Li  634       -0.05     -0.00      5.65267
 C   290 -- Li  623       -0.04      0.00      5.65294
 H   458 -- Li  617       -0.01      0.00      5.65960
 H   297 -- Li  595       -0.02      0.00      5.66156
 C   378 -- C   525       -0.04      0.00      5.66566
=============================================================


============== Orbital energy and occupancy information for spin 1 =============

      Total number of orbitals:    2334
        Occupancy sum (kernel):    1108.999999945
   Occupancy sum (eigenvalues):    1108.999999945
                 HOMO-LUMO gap:       0.000299485 Eh
                 Mid-gap level:      -0.073858633 Eh

                        Orbital | Energy (Eh) | Occupancy
                            1    -1.848425882   1.0000000
                        .......   ...........   .........
                         1100    -0.086394607   0.9764422
                         1101    -0.085699332   0.9695172
                         1102    -0.083277400   0.9364456
                         1103    -0.082572734   0.9234324
                         1104    -0.080765805   0.8712013
                         1105    -0.078250334   0.7474870
                         1106    -0.077048706   0.6726631
                         1107    -0.076498341   0.6324881
                         1108    -0.075746914   0.5763127
                         1109    -0.074008375   0.4277399
                        ....... -- gap at 0K -- .........
                         1110    -0.073708890   0.4142000
                         1111    -0.072775783   0.3458698
                         1112    -0.072549919   0.3068120
                         1113    -0.071417090   0.2482229
                         1114    -0.070417977   0.1796015
                         1115    -0.069323918   0.1419191
                         1116    -0.068489810   0.1146296
                         1117    -0.068058294   0.0999553
                         1118    -0.067822344   0.0950741
                         1119    -0.067448398   0.0840033
                        .......   ...........   .........
                         2334     0.766647856   0.0000000

================================================================================

============== Orbital energy and occupancy information for spin 2 =============

      Total number of orbitals:    2334
        Occupancy sum (kernel):    1109.000000054
   Occupancy sum (eigenvalues):    1109.000000054
                 HOMO-LUMO gap:       0.000299485 Eh
                 Mid-gap level:      -0.073858632 Eh

                        Orbital | Energy (Eh) | Occupancy
                            1    -1.848425882   1.0000000
                        .......   ...........   .........
                         1100    -0.086394607   0.9764422
                         1101    -0.085699332   0.9695172
                         1102    -0.083277399   0.9364456
                         1103    -0.082572734   0.9234324
                         1104    -0.080765805   0.8712014
                         1105    -0.078250334   0.7474869
                         1106    -0.077048705   0.6726632
                         1107    -0.076498341   0.6324881
                         1108    -0.075746913   0.5763127
                         1109    -0.074008375   0.4277400
                        ....... -- gap at 0K -- .........
                         1110    -0.073708890   0.4142000
                         1111    -0.072775783   0.3458698
                         1112    -0.072549919   0.3068120
                         1113    -0.071417090   0.2482228
                         1114    -0.070417977   0.1796014
                         1115    -0.069323918   0.1419191
                         1116    -0.068489810   0.1146296
                         1117    -0.068058293   0.0999553
                         1118    -0.067822344   0.0950741
                         1119    -0.067448397   0.0840033
                        .......   ...........   .........
                         2334     0.766647856   0.0000000

================================================================================

===================== Writing canonical molecular orbitals =====================
    Spin 1
| Orbital  Energy (eV)  Norm     |
| HOMO     -2.01387036  1.000000 | Writing "58/592nano_HOMO_UP.cube" ... done
Writing "58/592nano_HOMO_UP.dx" ... done
| LUMO     -2.00572097  1.000000 | Writing "58/592nano_LUMO_UP.cube" ... done
Writing "58/592nano_LUMO_UP.dx" ... done
================================================================================

===================== Writing canonical molecular orbitals =====================
    Spin 2
| Orbital  Energy (eV)  Norm     |
| HOMO     -2.01387035  1.000000 | Writing "58/592nano_HOMO_DN.cube" ... done
Writing "58/592nano_HOMO_DN.dx" ... done
| LUMO     -2.00572096  1.000000 | Writing "58/592nano_LUMO_DN.cube" ... done
Writing "58/592nano_LUMO_DN.dx" ... done
================================================================================

================== Local Density of States (LDOS) calculation ==================
Writing "58/592nano_UP_LDOS.txt" ...  done
================================================================================

================== Local Density of States (LDOS) calculation ==================
Writing "58/592nano_DN_LDOS.txt" ...  done
================================================================================
 
=============== Density of States (DOS) calculation for UP spin ================
Writing "58/592nano_UP_DOS.txt" ...  done
================================================================================
 
============== Density of States (DOS) calculation for DOWN spin ===============
Writing "58/592nano_DN_DOS.txt" ...  done
================================================================================
 
Writing bands to file "58/592nano.val_bands" ... done
 
================ Projected Density of States (pDOS) calculation ================
 
Constructing AM resolved functions  ...... done
Writing NGWF plot files in formats: CUBE DX ...  done
 
Performing overlap integrals ...  done
 
Computing pDOS weights ...  done
 
All bands spilling parameter =   2.80 %
Occupancy-weighted spilling parameter =   0.74 %
 
 => Outputting data for OptaDOS <=
 
Writing pDOS weights to file "58/592nano.val_pdos_bin" ... done
 
Writing band gradients to file "58/592nano.val_dome_bin" ... done
 
Writing Castep output cell file to "58/592nano-out.cell" ... done
 
 => Computing Gaussian smeared pDOS for UP spin<= 
Writing "58/592nano_UP_PDOS.txt" ...  done
 
 => Computing Gaussian smeared pDOS for DOWN spin<= 
Writing "58/592nano_DN_PDOS.txt" ...  done
 
 => Computing Occupancy-weighted Gaussian smeared pDOS for UP spin<= 
Writing "58/592nano_occ_UP_PDOS.txt" ...  done
  => Band centres for UP spin channel: 
 S band centre of group 1:  -20.217905 eV
 P band centre of group 1:   -8.318407 eV
  Band centres for UP spin channel done. <= 
  => Integrated number of electrons in each AM band for UP spin channel: 
 S num electrons of group 1:  324.151544
 P num electrons of group 1:  776.688279
  Integrated number of electrons for UP spin channel done. <= 
 
 => Computing Occupancy-weighted Gaussian smeared pDOS for DOWN spin<= 
Writing "58/592nano_occ_DN_PDOS.txt" ...  done
  => Band centres for DOWN spin channel: 
 S band centre of group 1:  -20.217905 eV
 P band centre of group 1:   -8.318407 eV
  Band centres for DOWN spin channel done. <=
  => Integrated number of electrons in each AM band for DOWN spin channel: 
 S num electrons of group 1:  324.151544
 P num electrons of group 1:  776.688279
  Integrated number of electrons for DOWN spin channel done. <=
================================================================================

------------------------------ TIMING INFORMATION ------------------------------
AVERAGE TIME:    9607.965s on    160 proc(s)                                    
TOTAL TIME:      9607.994s on    160 proc(s)                                    
================= AVERAGE TIMINGS FROM ALL PROCS (CUMULATIVE) ==================
|| TAG                                    #calls    cpu time   %total  Gflops ||
|| work_imbalance                       :     1        0.00s   0.000%  ------ ||
|| paw_tcore_density                    :     1        0.01s   0.000%  ------ ||
|| sparse_set_to_garbage                :   273        0.01s   0.000%  ------ ||
|| paw_dij_hartree                      :   270        0.01s   0.000%  ------ ||
|| paw_sphere_density_on_grid           :     1        0.01s   0.000%  ------ ||
|| basis_extract_function_from_box      :   437        0.03s   0.000%  ------ ||
|| ngwfs_initialise_from_radial         :     2        0.03s   0.000%  ------ ||
|| ewald_calculate_energy               :     1        0.10s   0.001%  ------ ||
|| pseudo_make_structure_factor         :     1        0.25s   0.003%  ------ ||
|| paw_tcore_hartree_on_grid            :     1        0.36s   0.004%  ------ ||
|| paw_dataset_init                     :     3        0.39s   0.004%  ------ ||
|| density_init_guess_real              :     1        0.69s   0.007%  ------ ||
|| dense_normal_eigensolve              :     1        1.02s   0.011%  ------ ||
|| sparse_init                          :     1        1.12s   0.012%  ------ ||
|| paw_species_calc_proj_prec_mat       :     1        1.53s   0.016%  ------ ||
|| restart_kernel_write                 :    16        1.61s   0.017%  ------ ||
|| augmentation_screen_dij              :   184        2.75s   0.029%  ------ ||
|| sw_init                              :     1        5.01s   0.052%  ------ ||
|| ngwf_gradient_coeffs                 :    15        7.81s   0.081%  ------ ||
|| sparse_embed_hotelling_invert_embed  :    31        8.31s   0.086%  ------ ||
|| paw_dij_xc                           :   270        8.38s   0.087%  ------ ||
|| basis_copy_function_to_box           :  8373        9.17s   0.095%  ------ ||
|| hartree_on_grid                      :   179       11.52s   0.120%  ------ ||
|| aug_nonlocal_mat                     :   255       15.23s   0.159%  ------ ||
|| fourier_apply_box_pair               :  1107       16.19s   0.169%  1.806k ||
|| projectors_init_fftbox_recip         :    93       23.66s   0.246%  ------ ||
|| augmentation_density_on_grid         :   179       24.95s   0.260%  ------ ||
|| sparse_trace                         :  8548       29.39s   0.306%  ------ ||
|| basis_dot_function_with_box          : 2.540M      49.02s   0.510%  ------ ||
|| projectors_func_ovlp_box             :    32       59.46s   0.619%  ------ ||
|| eigenstates_pdos                     :     1       76.95s   0.801%  ------ ||
|| integrals_kinetic                    :    31       78.33s   0.815%  ------ ||
|| hamiltonian_energy_components        :     3      111.68s   1.162%  ------ ||
|| function_ops_brappd_ketppd           :    64      127.05s   1.322%  ------ ||
|| eigenstates_calculate                :     1      143.00s   1.488%  ------ ||
|| dense_eigensolve                     :   286      151.89s   1.581%  ------ ||
|| fourier_apply_cell_forward           :  6587      162.61s   1.692% 140.996 ||
|| basis_add_function_to_box            : 6.069M     170.74s   1.777%  ------ ||
|| fourier_apply_cell_backward          :  7300      242.17s   2.521% 104.919 ||
|| sparse_product                       : 12470      256.58s   2.671%  ------ ||
|| cell_grid_deposit_box_real           : 13339      256.86s   2.673%  ------ ||
|| restart_ngwfs_tightbox_output        :    14      276.22s   2.875%  ------ ||
|| cell_grid_extract_box_real           :  5376      375.29s   3.906%  ------ ||
|| density_batch_row_sums               :   358      420.02s   4.372%  ------ ||
|| integrals_locpot_mat_els_batch       :   334      441.84s   4.599%  ------ ||
|| xc_energy_potential                  :   178      458.30s   4.770%  ------ ||
|| edft_diag_ngwf_ham                   :   284      459.44s   4.782%  ------ ||
|| projectors_gradient_batch            :    30      510.87s   5.317%  ------ ||
|| density_fftbox_deposit_to_cell       :  6086      512.29s   5.332%  ------ ||
|| density_fftbox_interpolate_multiply  :  6086      562.76s   5.857%  ------ ||
|| fourier_apply_box                    : 27866      613.25s   6.383%  3.908k ||
|| nlxc_vdw_energy                      :   356      613.98s   6.390%  ------ ||
|| edft_apply_smearing_operator         :   142      718.29s   7.476%  ------ ||
|| potential_apply_to_ngwf_batch        :   334      793.21s   8.256%  ------ ||
|| properties_calculate                 :     1      934.44s   9.726%  ------ ||
|| integrals_locpot_dbl_grid            :   167     1238.00s  12.885%  ------ ||
|| projectors_grad_precond_batch        :    30     1293.09s  13.459%  ------ ||
|| density_batch_interp_deposit         :   358     1424.35s  14.825%  ------ ||
|| density_on_dbl_grid                  :   179     1966.99s  20.473%  ------ ||
|| ngwf_gradient_build_batch            :    30     1989.29s  20.705%  ------ ||
|| ngwf_gradient_batch                  :    30     2172.27s  22.609%  ------ ||
|| hamiltonian_lhxc_calculate           :   174     2482.33s  25.836%  ------ ||
|| ngwf_gradient_lnv                    :    15     3132.72s  32.605%  ------ ||
|| edft_calculate                       :    15     4386.83s  45.658%  ------ ||
|| ngwf_cg_optimise                     :     1     8642.48s  89.951%  ------ ||
|| total_time                           :     1     9607.96s 100.000%  ------ ||
================================================================================
==================== AVERAGE TIMINGS FROM ALL PROCS (SELF) =====================
++ TAG                                    #calls    cpu time   %total  Gflops ++
++ nlxc_vdw_energy                      :   356       -4.60s  -0.048%  ------ ++
++ work_imbalance                       :     1        0.00s   0.000%  ------ ++
++ paw_tcore_density                    :     1        0.00s   0.000%  ------ ++
++ paw_sphere_density_on_grid           :     1        0.01s   0.000%  ------ ++
++ paw_tcore_hartree_on_grid            :     1        0.01s   0.000%  ------ ++
++ sparse_set_to_garbage                :   273        0.01s   0.000%  ------ ++
++ paw_dij_hartree                      :   270        0.01s   0.000%  ------ ++
++ basis_extract_function_from_box      :   437        0.03s   0.000%  ------ ++
++ ngwfs_initialise_from_radial         :     2        0.03s   0.000%  ------ ++
++ ngwf_gradient_coeffs                 :    15        0.07s   0.001%  ------ ++
++ ewald_calculate_energy               :     1        0.10s   0.001%  ------ ++
++ sparse_embed_hotelling_invert_embed  :    31        0.21s   0.002%  ------ ++
++ pseudo_make_structure_factor         :     1        0.25s   0.003%  ------ ++
++ density_init_guess_real              :     1        0.37s   0.004%  ------ ++
++ paw_dataset_init                     :     3        0.39s   0.004%  ------ ++
++ hartree_on_grid                      :   179        0.67s   0.007%  ------ ++
++ aug_nonlocal_mat                     :   255        0.83s   0.009%  ------ ++
++ dense_normal_eigensolve              :     1        1.02s   0.011%  ------ ++
++ sparse_init                          :     1        1.12s   0.012%  ------ ++
++ paw_species_calc_proj_prec_mat       :     1        1.29s   0.013%  ------ ++
++ restart_kernel_write                 :    16        1.61s   0.017%  ------ ++
++ hamiltonian_energy_components        :     3        1.92s   0.020%  ------ ++
++ augmentation_screen_dij              :   184        2.26s   0.024%  ------ ++
++ main_program_(onetep.F90)            :     1        2.28s   0.024%  ------ ++
++ integrals_locpot_dbl_grid            :   167        2.94s   0.031%  ------ ++
++ sw_init                              :     1        5.01s   0.052%  ------ ++
++ augmentation_density_on_grid         :   179        6.90s   0.072%  ------ ++
++ paw_dij_xc                           :   270        8.38s   0.087%  ------ ++
++ basis_copy_function_to_box           :  8373        9.17s   0.095%  ------ ++
++ fourier_apply_box_pair               :  1107       16.19s   0.169%  1.806k ++
++ projectors_init_fftbox_recip         :    93       23.66s   0.246%  ------ ++
++ sparse_trace                         :  8548       29.39s   0.306%  ------ ++
++ projectors_func_ovlp_box             :    32       36.01s   0.375%  ------ ++
++ eigenstates_calculate                :     1       48.81s   0.508%  ------ ++
++ basis_dot_function_with_box          : 2.540M      49.02s   0.510%  ------ ++ (!) overhead: ~   5.6%
++ edft_calculate                       :    15       52.78s   0.549%  ------ ++
++ eigenstates_pdos                     :     1       63.30s   0.659%  ------ ++
++ integrals_kinetic                    :    31       67.88s   0.706%  ------ ++
++ xc_energy_potential                  :   178       69.32s   0.721%  ------ ++
++ ngwf_gradient_build_batch            :    30       80.55s   0.838%  ------ ++
++ hamiltonian_lhxc_calculate           :   174       85.13s   0.886%  ------ ++
++ ngwf_gradient_batch                  :    30      117.27s   1.221%  ------ ++
++ density_on_dbl_grid                  :   179      122.62s   1.276%  ------ ++
++ function_ops_brappd_ketppd           :    64      127.05s   1.322%  ------ ++
++ dense_eigensolve                     :   286      151.89s   1.581%  ------ ++
++ fourier_apply_cell_forward           :  6587      162.61s   1.692% 140.996 ++
++ basis_add_function_to_box            : 6.069M     170.74s   1.777%  ------ ++ (!) overhead: ~   3.8%
++ density_fftbox_interpolate_multiply  :  6086      215.63s   2.244%  ------ ++
++ ngwf_cg_optimise                     :     1      234.97s   2.446%  ------ ++
++ fourier_apply_cell_backward          :  7300      242.17s   2.521% 104.919 ++
++ edft_apply_smearing_operator         :   142      243.43s   2.534%  ------ ++
++ sparse_product                       : 12470      256.58s   2.671%  ------ ++
++ density_fftbox_deposit_to_cell       :  6086      256.77s   2.672%  ------ ++
++ cell_grid_deposit_box_real           : 13339      256.86s   2.673%  ------ ++
++ restart_ngwfs_tightbox_output        :    14      276.21s   2.875%  ------ ++
++ edft_diag_ngwf_ham                   :   284      308.74s   3.213%  ------ ++
++ density_batch_row_sums               :   358      317.64s   3.306%  ------ ++
++ density_batch_interp_deposit         :   358      319.81s   3.329%  ------ ++
++ cell_grid_extract_box_real           :  5376      375.29s   3.906%  ------ ++
++ integrals_locpot_mat_els_batch       :   334      402.70s   4.191%  ------ ++
++ potential_apply_to_ngwf_batch        :   334      475.15s   4.945%  ------ ++
++ projectors_gradient_batch            :    30      495.35s   5.156%  ------ ++
++ properties_calculate                 :     1      529.46s   5.511%  ------ ++
++ fourier_apply_box                    : 27866      613.25s   6.383%  3.908k ++
++ ngwf_gradient_lnv                    :    15      952.63s   9.915%  ------ ++
++ projectors_grad_precond_batch        :    30     1273.52s  13.255%  ------ ++
================================================================================
(!) WARNING: You're wasting precious cycles calling timer. 
             Each pair of timer_clock calls itself cost   1.08 microseconds!
Overhead of generating timer report: 
- 0 ms averaging over threads,
- 19 ms ensuring consistency across MPI ranks,
- 0 ms printing in order.

Job completed: 18-12-2021 23:36 (-0000)

