 +---------------------------------------------------------------+
 |                                                               |
 |        ####### #     # ####### ####### ####### ######         |
 |        #     # ##    # #          #    #       #     #        |
 |        #     # # #   # #          #    #       #     #        |
 |        #     # #  #  # #####      #    #####   ######         |
 |        #     # #   # # #          #    #       #              |
 |        #     # #    ## #          #    #       #              |
 |        ####### #     # #######    #    ####### #              |
 |                                                               |
 |        Linear-Scaling Ab Initio Total Energy Program          |
 |                                                               |
 |          Release for academic collaborators of ODG            |
 |                                             Version 5.3.2.12  |
 |                                                               |
 +---------------------------------------------------------------+
 |                                                               |
 |  Authors:                                                     |
 |  Jacek Dziedzic, Peter D. Haynes, Nicholas D. M. Hine,        |
 |  Arash. A. Mostofi, Mike C. Payne and Chris-Kriton Skylaris   |
 |                                                               |
 |  Contributors:                                                |
 |  J. Aarons, L. Andrinopoulos, P. W. Avraam, R. A. Bell,       |
 |  A. Bhandari, G. A. Bramley, R. J. Charlton, S. J. Clark,     |
 |  R. J. Clements, G. C. Constantinescu, F. Corsetti,           |
 |  N. Corsini, O. Dieguez, S. M. M. Dubois, K. K. B. Duff,      |
 |  J. M. Escartin, A. Greco, H. Helal, Q. O. Hill, L. P. Lee,   |
 |  J.-H. Li, E. B. Linscott, G. Moynihan, D. D. O`Regan,        |
 |  O. K. Okan, M. J. S. Phipps, C. J. Pickard,                  |
 |  J. C. A. Prentice, M. I. J. Probert, L. E. Ratcliff,         |
 |  M. Robinson, A. Ruiz Serrano, J. S. Spencer, E. W. Tait,     |
 |  G. Teobaldi, D. Turban, V. Vitale, K. A. Wilkinson,          |
 |  C. Weber, J. C. Womack, N. Yeung and T. J. Zuehlsdorff       |
 |                                                               |
 |                                   Copyright (c) 2004-2020     |
 |                                                               |
 |  Please cite:                                                 |
 |  "Introducing ONETEP: Linear-scaling density functional       |
 |   simulations on parallel computers".                         |
 |   C.-K. Skylaris, P. D. Haynes, A. A. Mostofi, M. C. Payne.   |
 |   J. Chem. Phys. 122 084119 (2005).                           |
 |                                                               |
 |          in all publications arising from your use of ONETEP. |
 |                                                               |
 +---------------------------------------------------------------+
 |                                                               |
 |   ONETEP is based on developments described in the following  |
 |   publications:                                               |
 |                                                               |
 |  "Nonorthogonal generalized Wannier function pseudopotential  |
 |   plane-wave method".                                         |
 |   C.-K. Skylaris, A. A. Mostofi, P. D. Haynes, O. Dieguez,    |
 |   M. C. Payne.                                                |
 |   Phys. Rev. B 66 035119 (2002).                              |
 |                                                               |
 |  "Preconditioned iterative minimization for linear-scaling    |
 |   electronic structure calculations".                         |
 |   A. A. Mostofi, P. D. Haynes, C.-K. Skylaris, M. C. Payne.   |
 |   J. Chem. Phys. 119(17), pp.8842-8848 (2003).                |
 |                                                               |
 |  "Total-energy calculations on a real space grid with         |
 |   localized functions and a plane-wave basis".                |
 |   A. A. Mostofi, C.-K. Skylaris, P. D. Haynes, M. C. Payne.   |
 |   Comput. Phys. Commun. 147, pp.788-802 (2002).               |
 |                                                               |
 |  "Accurate kinetic energy evaluation in electronic structure  |
 |   calculations with localized functions on real space grids"  |
 |   C.-K. Skylaris, A. A. Mostofi, P. D. Haynes, C. J. Pickard, |
 |   M. C. Payne.                                                |
 |   Comput. Phys. Commun. 140, pp.315-322 (2001).               |
 |                                                               |
 |  "Accurate ionic forces and geometry optimization in linear-  |
 |   scaling density-functional theory with local orbitals"      |
 |   N. D. M. Hine, M. Robinson, P. D. Haynes, C.-K. Skylaris,   |
 |   M. C. Payne, and A. A. Mostofi.                             |
 |   Phys. Rev. B 83 195102 (2011).                              |
 |                                                               |
 +---------------------------------------------------------------+

Job started: 06-10-2020 00:29 (+0100)
 
Reading parameters from file "40/592nano.dat" ...... done

If your calculation crashes here, before "Checking processes and threads..."
is displayed, then your stack size is insufficient.
If so, use "ulimit -s unlimited" at runtime.
You can disable this check with "check_stack_size F".

Checking processes and threads...
   Determining the default number of threads...
      No default threads set at compilation time: defaulting to 1.
      OpenMP library call suggests 4 threads.
      Hybrid MPI-OpenMP compilation detected.
      Number of MPI processes > 1.
      OMP_NUM_THREADS environment variable present and
      its value matches the one obtained from the OpenMP library call.
      Using this value as default.
      Default threads: 4
      Default applies to threads_max and threads_num_fftboxes.
      Settings in the input file override this default.
   ... done

   Running with 160 MPI processes.
   There are 10 MPI processes running on the same node as the root process.
   Each MPI process is using: 
               1 threads for simulation cell FFTs.
               1 threads for parallel FFT box operations.
               4 threads for loops over batched FFT box operations.
               4 threads in other parallel regions.
... done

Basic input checks...
Resetting ngwf_cg_rotate to TRUE for EDFT calculations
... done

Reading geometry and species blocks from file "40/592nano.dat" ...    
  Number of PPD points along a3 set to 1.  This is 
  the default value, it may have been provided also in the input file.
... done
 Writing xyz coordinates to file "40/592nano.xyz" ... done


--------------------------------------------------------------------------------
---------------------------------- INPUT FILE ----------------------------------
--------------------------------------------------------------------------------

task : singlepoint                                                              
do_properties : true                                                            
ddec_classical_hirshfeld T                                                      
dx_format T                                                                     
edft T                                                                          
edft_spin_fix 3                                                                 
output_detail VERBOSE                                                           
write_xyz T                                                                     
dispersion 4                                                                    
xc_functional PBE                                                               
cutoff_energy 830 eV                                                            
paw T                                                                           
geom_disp_tol 0.015 bohr                                                        
geom_energy_tol 1.5E-6 hartree                                                  
geom_force_tol 0.003 "ha/bohr"                                                  
EDFT_MAXIT 30                                                                   
pdos_max_l = 2                                                                  
dos_smear  0.1 eV                                                               
popn_calculate T                                                                
PDOS_PSEUDOATOMIC T                                                             
PDOS_REDUCE_SWS F                                                               
PDOS_CONSTRUCT_BASIS F                                                          
PDOS_LOWDIN T                                                                   
PDOS_ORTH_ATOM_BLOCKS F                                                         
PDOS_LCAO_OPTIMIZE F                                                            
pdos_optados_output T                                                           
homo_plot 0                                                                     
lumo_plot 0                                                                     
homo_dens_plot -1                                                               
lumo_dens_plot -1                                                               
%BLOCK SPECIES                                                                  
C C 6 4 9.0                                                                     
H H 1 1 9.0                                                                     
Li Li 3 5 9.0                                                                   
%ENDBLOCK SPECIES                                                               
%BLOCK SPECIES_POT                                                              
C "~/pp/paw/c_pbe_abinit.paw"                                                   
H "~/pp/paw/h_pbe_abinit.paw"                                                   
Li "~/pp/paw/li_pbe_abinit.paw"                                                 
%ENDBLOCK SPECIES_POT                                                           
%BLOCK SPECIES_ATOMIC_SET                                                       
C "SOLVE conf=2s2 2p2"                                                          
H "SOLVE conf=1s1"                                                              
Li "SOLVE conf=1s2 2s1 2p0"                                                     
%ENDBLOCK SPECIES_ATOMIC_SET                                                    
%BLOCK SPECIES_LDOS_GROUPS                                                      
C                                                                               
H                                                                               
Li                                                                              
%ENDBLOCK SPECIES_LDOS_GROUPS                                                   
%BLOCK LATTICE_CART                                                             
94.486315650000      0.000000000000       0.000000000000                        
0.000000000000       94.486315650000      0.000000000000                        
0.000000000000       0.000000000000       94.486315650000                       
%ENDBLOCK LATTICE_CART                                                          
%BLOCK POSITIONS_ABS                                                            
C 45.508756 50.682661 30.611735                                                 
C 45.451329 50.593524 36.422408                                                 
C 46.845245 53.029073 30.587675                                                 
C 48.151235 50.581321 36.608489                                                 
C 49.570251 48.361830 30.539987                                                 
C 49.502333 48.236434 36.663581                                                 
C 50.908131 50.709893 30.513931                                                 
C 52.189017 48.235058 36.766435                                                 
C 45.480003 55.359111 30.495604                                                 
C 45.452818 55.264808 36.720726                                                 
C 46.813053 57.700872 30.309609                                                 
C 48.151861 55.265645 36.765485                                                 
C 49.545023 53.039129 30.538335                                                 
C 49.494373 52.921410 36.748603                                                 
C 50.878704 55.383749 30.372697                                                 
C 52.188442 52.922010 36.823399                                                 
C 45.425523 50.503722 43.410520                                                 
C 45.380238 50.421729 49.179529                                                 
C 46.771913 52.844993 43.229281                                                 
C 48.084397 50.425688 49.198167                                                 
C 49.489765 48.153820 43.165539                                                 
C 49.437808 48.088374 49.246699                                                 
C 50.834093 50.497532 43.105990                                                 
C 52.135820 48.092647 49.393223                                                 
C 45.408491 55.171889 43.135490                                                 
C 45.371899 55.099148 49.299527                                                 
C 46.752728 57.501686 43.072866                                                 
C 48.072215 55.104562 49.326993                                                 
C 49.468367 52.836909 43.127838                                                 
C 49.427174 52.768547 49.272032                                                 
C 50.807882 55.169299 43.051126                                                 
C 52.121965 52.775110 49.418444                                                 
C 57.648315 48.409414 29.836484                                                 
C 57.562650 48.246568 36.793697                                                 
C 58.987571 50.759066 29.722679                                                 
C 60.266475 48.245610 36.739255                                                 
C 57.592152 48.168764 43.096417                                                 
C 57.487975 48.104414 49.961099                                                 
C 58.942071 50.515077 43.090326                                                 
C 60.197711 48.113845 50.273501                                                 
C 53.604589 50.724734 30.323198                                                 
C 53.528265 50.585622 36.810491                                                 
C 54.930859 53.069431 30.166485                                                 
C 56.231234 50.592635 36.807171                                                 
C 53.524408 50.504031 43.034085                                                 
C 53.473422 50.436337 49.487574                                                 
C 54.870908 52.848177 43.010447                                                 
C 56.161367 50.440103 49.784995                                                 
C 57.673862 43.742737 29.652789                                                 
C 57.609957 43.561534 36.799491                                                 
C 59.009692 46.067384 29.598571                                                 
C 60.343726 43.555583 36.892300                                                 
C 57.585920 43.491151 43.023632                                                 
C 57.521070 43.435593 50.184637                                                 
C 58.944737 45.822627 43.091251                                                 
C 60.221512 43.439181 50.476825                                                 
C 53.625719 46.052442 30.188855                                                 
C 53.543945 45.885230 36.755325                                                 
C 54.961549 48.393905 30.155932                                                 
C 56.242434 45.891343 36.775087                                                 
C 53.540010 45.833488 43.012609                                                 
C 53.483162 45.754410 49.588081                                                 
C 54.894619 48.167195 43.039605                                                 
C 56.169409 45.770920 49.876555                                                 
C 57.591601 57.755614 29.694451                                                 
C 57.587987 57.609195 36.931061                                                 
C 58.916462 60.118175 29.440107                                                 
C 60.309987 57.610273 36.914635                                                 
C 57.553079 57.525907 42.932591                                                 
C 57.500258 57.451263 50.109124                                                 
C 58.909669 59.881338 42.873791                                                 
C 60.219106 57.443448 50.356750                                                 
C 45.418288 64.681893 29.510708                                                 
C 45.465501 64.631066 36.760200                                                 
C 46.776770 67.025146 29.248875                                                 
C 48.161446 64.643575 36.653028                                                 
C 49.466928 62.349704 29.646777                                                 
C 49.523445 62.286983 36.711378                                                 
C 50.832787 64.719065 29.327038                                                 
C 52.234832 62.284612 36.769974                                                 
C 45.399859 64.516620 43.013724                                                 
C 45.369083 64.417443 50.210045                                                 
C 46.747609 66.873330 42.996451                                                 
C 48.056926 64.422857 50.269357                                                 
C 49.431792 62.154853 43.217333                                                 
C 49.406665 62.093931 50.047033                                                 
C 50.776064 64.500416 43.436604                                                 
C 52.085297 62.107200 50.201957                                                 
C 53.537265 60.050003 29.837881                                                 
C 53.554169 59.945747 36.859574                                                 
C 54.882465 62.422706 29.615823                                                 
C 56.254007 59.946600 36.941537                                                 
C 53.491383 59.836455 43.051798                                                 
C 53.442018 59.780344 49.992727                                                 
C 54.855537 62.188427 43.035629                                                 
C 56.158334 59.784465 50.144127                                                 
C 57.622822 53.084338 29.861180                                                 
C 57.567416 52.935392 36.868190                                                 
C 58.956022 55.445394 29.645334                                                 
C 60.295011 52.966313 36.896291                                                 
C 57.575652 52.854261 42.988933                                                 
C 57.485865 52.783808 49.998204                                                 
C 58.917391 55.207131 42.930483                                                 
C 60.201679 52.802154 50.357606                                                 
C 45.451138 60.022598 30.086673                                                 
C 45.472096 59.944820 36.759291                                                 
C 46.785412 62.350880 29.765465                                                 
C 48.166077 59.947400 36.755439                                                 
C 49.509782 57.708470 30.236447                                                 
C 49.502956 57.601596 36.798371                                                 
C 50.835538 60.039963 29.917356                                                 
C 52.201737 57.606150 36.840287                                                 
C 45.392934 59.843288 43.049777                                                 
C 45.370984 59.760851 49.681699                                                 
C 46.742204 62.172114 43.104951                                                 
C 48.064874 59.769240 49.722383                                                 
C 49.450458 57.498691 43.068993                                                 
C 49.414991 57.440666 49.536170                                                 
C 50.796776 59.840994 43.120693                                                 
C 52.110107 57.446630 49.672504                                                 
C 53.568638 55.395034 30.199933                                                 
C 53.537409 55.269714 36.860412                                                 
C 54.891890 57.743499 29.944938                                                 
C 56.228870 55.269030 36.888124                                                 
C 53.516169 55.171292 43.015418                                                 
C 53.462230 55.116846 49.609757                                                 
C 54.854588 57.510754 43.001086                                                 
C 56.150233 55.116205 49.875006                                                 
H 27.351411 41.287378 29.069839                                                 
H 28.213014 39.462997 36.842688                                                 
H 27.187180 41.107426 42.801758                                                 
H 28.206181 39.294549 50.369892                                                 
H 41.905279 30.235514 29.124827                                                 
C 42.932237 32.025265 29.240397                                                 
H 44.398165 30.123312 36.802329                                                 
H 41.768120 29.954571 43.029998                                                 
C 42.781623 31.757440 43.012650                                                 
H 44.388074 29.995446 50.586302                                                 
H 29.692995 37.202730 29.157212                                                 
C 30.718595 38.992877 29.273530                                                 
H 32.280294 37.133447 36.736544                                                 
H 33.772971 34.847518 29.155555                                                 
C 34.798528 36.633901 29.318276                                                 
H 29.524312 37.016915 42.692884                                                 
C 30.560639 38.805817 42.747624                                                 
H 32.273682 36.956528 50.389367                                                 
H 33.544438 34.652870 42.990169                                                 
C 34.599851 36.432970 42.959086                                                 
H 37.845262 32.548663 29.001904                                                 
C 38.860768 34.340094 29.192518                                                 
H 40.356274 32.476775 36.283583                                                 
H 37.618934 32.282616 43.628658                                                 
C 38.649869 34.066347 43.442631                                                 
H 40.336081 32.328381 50.499305                                                 
H 46.610446 30.259876 29.298966                                                 
H 46.473187 30.008114 42.641463                                                 
H 25.806426 48.251450 35.922723                                                 
C 27.852163 48.262094 36.214095                                                 
H 25.817744 48.038628 50.643257                                                 
C 27.879507 48.047391 50.478452                                                 
H 25.847698 43.530364 36.442157                                                 
H 27.341126 45.973766 29.107952                                                 
C 27.911644 43.539581 36.565821                                                 
H 25.836630 43.363210 50.500339                                                 
H 27.191588 45.764296 43.468011                                                 
C 27.901721 43.363792 50.417134                                                 
H 25.864417 57.708558 36.849188                                                 
H 27.260254 59.938863 29.332555                                                 
C 27.933199 57.693188 36.791429                                                 
H 25.811256 57.401040 50.645403                                                 
H 27.148748 59.811666 43.112580                                                 
C 27.878111 57.407873 50.576449                                                 
H 25.775077 52.982509 36.203513                                                 
H 27.289415 55.251765 29.272472                                                 
C 27.844836 52.977464 36.289646                                                 
H 25.796743 52.714921 50.620201                                                 
H 27.175207 55.145931 43.597951                                                 
C 27.860564 52.715066 50.504198                                                 
C 29.413233 41.277356 29.203017                                                 
C 29.234505 41.259846 36.757290                                                 
C 30.696021 43.636802 29.334581                                                 
C 31.912315 41.217864 36.863741                                                 
C 33.412580 38.917170 29.391656                                                 
C 33.309210 38.930577 36.678241                                                 
C 34.755933 41.296980 29.626159                                                 
C 35.971308 38.905368 36.800964                                                 
C 29.402878 45.973493 29.269253                                                 
C 29.174380 45.872135 36.497732                                                 
C 30.694929 48.287509 29.274641                                                 
C 31.914315 45.904641 36.704004                                                 
C 33.412314 43.625456 29.602690                                                 
C 33.276307 43.578140 36.801465                                                 
C 34.758326 45.971077 29.805783                                                 
C 35.977419 43.583179 36.794670                                                 
C 29.256889 41.090389 42.823193                                                 
C 29.224360 41.093063 50.350991                                                 
C 30.549371 43.424101 42.894013                                                 
C 31.911093 41.038713 50.246999                                                 
C 33.222794 38.745398 42.780494                                                 
C 33.297374 38.749627 50.265986                                                 
C 34.595849 41.111482 42.857497                                                 
C 35.950000 38.729490 50.316665                                                 
C 29.266702 45.768060 43.305225                                                 
C 29.179190 45.740024 50.379885                                                 
C 30.581391 48.098268 43.367511                                                 
C 31.905058 45.731611 50.156157                                                 
C 33.264958 43.448234 42.932495                                                 
C 33.254583 43.407485 50.105159                                                 
C 34.619069 45.786465 43.056053                                                 
C 35.959656 43.411583 49.895840                                                 
C 41.515070 38.996634 29.788088                                                 
C 41.398507 38.923020 36.629633                                                 
C 42.849504 41.325750 30.106741                                                 
C 44.088660 38.897550 36.723498                                                 
C 41.369863 38.766285 43.107699                                                 
C 41.374410 38.766005 50.096146                                                 
C 42.715270 41.110316 43.057173                                                 
C 44.056298 38.751542 49.934579                                                 
C 37.473525 41.302112 29.803098                                                 
C 37.340125 41.253814 36.781160                                                 
C 38.799814 43.641694 30.103406                                                 
C 40.039109 41.239174 36.714148                                                 
C 37.303184 41.107859 42.977057                                                 
C 37.311557 41.095516 50.024484                                                 
C 38.653500 43.448492 43.026174                                                 
C 40.006619 41.081441 49.862642                                                 
C 41.510379 34.316366 29.298802                                                 
C 41.398744 34.267668 36.467645                                                 
C 42.873614 36.670354 29.574177                                                 
C 44.073018 34.193500 36.824529                                                 
C 41.375780 34.019276 43.195338                                                 
C 41.370791 34.115604 50.368993                                                 
C 42.733792 36.418763 43.098087                                                 
C 44.047541 34.072125 50.435075                                                 
C 37.480137 36.596866 29.315414                                                 
C 37.362275 36.621094 36.508832                                                 
C 38.835514 38.977612 29.619421                                                 
C 40.045982 36.577269 36.421408                                                 
C 37.249642 36.376846 43.148654                                                 
C 37.342052 36.442386 50.230596                                                 
C 38.644697 38.760300 43.093288                                                 
C 40.008163 36.401479 50.409610                                                 
C 41.472840 48.325147 30.475273                                                 
C 41.374956 48.246293 36.507143                                                 
C 42.808447 50.669976 30.557389                                                 
C 44.083757 48.235386 36.292983                                                 
C 41.351136 48.142872 43.203992                                                 
C 41.333283 48.077419 49.291634                                                 
C 42.701101 50.496766 43.321229                                                 
C 44.034434 48.079234 49.212917                                                 
C 29.354541 55.268768 29.393073                                                 
C 29.183993 55.364417 36.564697                                                 
C 30.632271 57.613994 29.462065                                                 
C 31.931081 55.319738 36.699518                                                 
C 33.399097 52.976544 29.669665                                                 
C 33.270482 52.964537 36.677334                                                 
C 34.716258 55.305171 29.837244                                                 
C 35.974844 52.949628 36.753027                                                 
C 29.255497 55.150589 43.486759                                                 
C 29.160227 55.048495 50.512263                                                 
C 30.519900 57.515228 43.189537                                                 
C 31.886537 55.065936 50.286889                                                 
C 33.283499 52.816595 43.138569                                                 
C 33.243638 52.720372 50.052838                                                 
C 34.614382 55.172687 43.091854                                                 
C 35.931334 52.734832 49.717135                                                 
C 37.422167 50.648451 30.198822                                                 
C 37.330250 50.600001 36.738626                                                 
C 38.755181 52.991776 30.304672                                                 
C 40.019919 50.595349 36.631739                                                 
C 37.317109 50.479381 43.057320                                                 
C 37.279427 50.407390 49.537551                                                 
C 38.659467 52.830173 43.063688                                                 
C 39.977614 50.412374 49.333681                                                 
C 41.493115 43.652688 30.260996                                                 
C 41.388684 43.579862 36.682405                                                 
C 42.831103 45.993424 30.453958                                                 
C 44.087821 43.566423 36.637218                                                 
C 41.360536 43.452126 43.050873                                                 
C 41.346790 43.409624 49.544839                                                 
C 42.709482 45.787750 43.154561                                                 
C 44.047497 43.408010 49.442329                                                 
C 29.392020 50.617224 29.440269                                                 
C 29.141181 50.619539 36.392673                                                 
C 30.669960 52.964550 29.326458                                                 
C 31.894842 50.612865 36.579379                                                 
C 33.424814 48.292784 29.627743                                                 
C 33.259936 48.256424 36.694909                                                 
C 34.738018 50.638278 29.863006                                                 
C 35.966726 48.255781 36.744494                                                 
C 29.262090 50.461112 43.303524                                                 
C 29.157147 50.368231 50.432255                                                 
C 30.588160 52.817629 43.246721                                                 
C 31.898338 50.381024 50.161236                                                 
C 33.287141 48.130025 43.162317                                                 
C 33.249213 48.067573 49.972229                                                 
C 34.616641 50.469488 43.103901                                                 
C 35.937110 48.071930 49.684481                                                 
C 37.444572 45.971800 30.112915                                                 
C 37.319062 45.927288 36.750044                                                 
C 38.780702 48.312946 30.296215                                                 
C 40.029829 45.915667 36.656881                                                 
C 37.309868 45.783871 43.038099                                                 
C 37.292473 45.742869 49.641482                                                 
C 38.654151 48.138923 43.078686                                                 
C 39.989672 45.740511 49.452701                                                 
C 45.558807 32.038538 29.334103                                                 
C 45.449463 31.904686 36.820310                                                 
C 46.942946 34.338592 29.479956                                                 
C 48.079825 31.887017 36.883803                                                 
H 49.104793 30.092320 36.883307                                                 
H 50.662702 32.620829 29.316144                                                 
C 45.559572 36.681240 29.648983                                                 
C 45.426764 36.550236 36.814592                                                 
C 46.901963 39.024739 29.899083                                                 
C 48.117355 36.529926 36.881400                                                 
C 49.618019 34.399405 29.466296                                                 
C 49.471228 34.155026 36.924451                                                 
C 50.957639 36.688857 29.474895                                                 
C 52.167378 34.188350 36.800089                                                 
C 45.430834 31.782964 42.796536                                                 
C 45.435858 31.773684 50.460464                                                 
C 46.803322 34.080323 42.823077                                                 
C 48.058894 31.759743 50.373819                                                 
H 49.090938 29.969755 50.437971                                                 
H 50.533807 32.377622 42.685677                                                 
C 45.432310 36.440297 42.961061                                                 
C 45.408741 36.412516 50.149796                                                 
C 46.763630 38.790877 42.959062                                                 
C 48.092874 36.398721 50.105341                                                 
C 49.482059 34.155939 42.805846                                                 
C 49.461412 34.038745 50.287813                                                 
C 50.801875 36.447951 42.805635                                                 
C 52.142399 34.076331 50.261601                                                 
H 53.177228 32.383761 36.760730                                                 
H 53.167736 32.287849 50.397273                                                 
C 57.662677 39.089524 29.606911                                                 
C 57.663612 38.830622 36.693634                                                 
C 59.030775 41.397711 29.436314                                                 
C 60.316330 38.911815 36.925909                                                 
C 57.540209 38.839763 43.149448                                                 
C 57.551800 38.742509 50.460536                                                 
C 58.955557 41.127476 43.054278                                                 
C 60.224971 38.821879 50.592583                                                 
C 45.530509 46.005471 30.506509                                                 
C 45.443209 45.893203 36.498091                                                 
C 46.871728 48.348650 30.587383                                                 
C 48.152614 45.888441 36.626809                                                 
C 49.585983 43.693240 30.288916                                                 
C 49.493394 43.556509 36.722033                                                 
C 50.929136 46.033950 30.383150                                                 
C 52.203854 43.549114 36.724375                                                 
C 45.426956 45.796681 43.209387                                                 
C 45.390535 45.742948 49.269370                                                 
C 46.788209 48.147903 43.329521                                                 
C 48.092824 45.744909 49.280811                                                 
C 49.471603 43.483931 43.019653                                                 
C 49.444484 43.410592 49.455604                                                 
C 50.829997 45.824652 43.050667                                                 
C 52.139951 43.418074 49.619876                                                 
C 53.629196 41.404432 29.779198                                                 
C 53.555636 41.206586 36.690037                                                 
C 54.972616 43.728098 29.901475                                                 
C 56.270519 41.212148 36.724483                                                 
C 53.508638 41.176058 42.991900                                                 
C 53.487853 41.088755 49.928609                                                 
C 54.879605 43.500568 43.005238                                                 
C 56.192485 41.101445 50.206360                                                 
H 57.284145 34.711557 36.301928                                                 
H 58.697922 37.302510 29.470948                                                 
H 57.233050 34.654257 50.537461                                                 
H 58.560818 37.030238 43.289217                                                 
C 45.543902 41.340479 30.161368                                                 
C 45.445916 41.224721 36.735023                                                 
C 46.887545 43.676877 30.361523                                                 
C 48.137431 41.215654 36.754816                                                 
C 49.584636 39.043183 29.795552                                                 
C 49.479822 38.869725 36.795587                                                 
C 50.938676 41.371114 29.984666                                                 
C 52.188389 38.850645 36.699733                                                 
C 45.411758 41.123409 43.020740                                                 
C 45.402827 41.075076 49.619712                                                 
C 46.773852 43.464663 43.059007                                                 
C 48.097710 41.074906 49.610768                                                 
C 49.459311 38.812641 42.908780                                                 
C 49.446680 38.741598 49.877293                                                 
C 50.815951 41.144873 42.974737                                                 
C 52.147317 38.742624 50.008970                                                 
C 53.634919 36.751772 29.585912                                                 
C 53.544859 36.451374 36.665293                                                 
C 54.999765 39.044711 29.478865                                                 
C 56.253849 36.505488 36.395352                                                 
C 53.478654 36.521747 43.168348                                                 
C 53.521437 36.363524 50.271782                                                 
C 54.860315 38.834400 43.045408                                                 
C 56.192739 36.433179 50.394674                                                 
H 61.366189 37.132804 36.993903                                                 
H 62.740111 39.669514 29.335812                                                 
H 61.262223 37.039218 50.711664                                                 
H 62.633125 39.368046 43.108180                                                 
H 28.269515 61.766089 36.984841                                                 
H 28.176481 61.463155 50.698392                                                 
C 29.327042 59.965539 29.368348                                                 
C 29.278844 59.968630 36.870228                                                 
C 30.622512 62.248345 29.327517                                                 
C 31.946055 60.002034 36.826296                                                 
C 33.353610 57.644740 29.633376                                                 
C 33.300681 57.640825 36.750987                                                 
C 34.682194 59.977445 29.607946                                                 
C 36.003895 57.618380 36.707184                                                 
H 29.585166 64.034505 29.251030                                                 
H 32.334943 64.067940 36.259350                                                 
C 33.321151 62.339997 29.385154                                                 
C 33.355147 62.269736 36.467453                                                 
C 34.660112 64.621831 29.309704                                                 
C 36.037486 62.275308 36.388899                                                 
C 29.212743 59.832360 43.138796                                                 
C 29.195760 59.663663 50.604525                                                 
C 30.519915 62.146697 43.202667                                                 
C 31.876364 59.723228 50.550748                                                 
C 33.251946 57.510417 43.112928                                                 
C 33.230868 57.388109 50.265211                                                 
C 34.577799 59.859557 43.142030                                                 
C 35.934630 57.398481 49.980605                                                 
H 29.466926 63.924382 43.247882                                                 
H 32.245405 63.808540 50.805892                                                 
C 33.179591 62.223437 43.243692                                                 
C 33.258867 62.035285 50.427605                                                 
C 34.573785 64.572059 43.359270                                                 
C 35.931076 62.059475 50.412835                                                 
C 41.422799 57.677347 30.243409                                                 
C 41.415088 57.603306 36.737711                                                 
C 42.755375 60.011064 30.064969                                                 
C 44.112685 57.604956 36.760746                                                 
C 41.350134 57.509415 43.044195                                                 
C 41.320055 57.419703 49.566136                                                 
C 42.701129 59.849192 43.025830                                                 
C 44.020994 57.428441 49.474651                                                 
C 37.376923 59.988724 29.808207                                                 
C 37.380207 59.931503 36.617433                                                 
C 38.696934 62.321096 29.643547                                                 
C 40.070150 59.945793 36.696851                                                 
C 37.286998 59.860811 43.120341                                                 
C 37.286606 59.712687 50.077085                                                 
C 38.640204 62.204431 43.123355                                                 
C 39.971720 59.740648 49.881548                                                 
C 41.448743 53.002542 30.483525                                                 
C 41.390705 52.935300 36.646689                                                 
C 42.783580 55.347193 30.450649                                                 
C 44.094375 52.931808 36.591591                                                 
C 41.346184 52.838217 43.166401                                                 
C 41.323278 52.751960 49.300401                                                 
C 42.698092 55.178745 43.112836                                                 
C 44.023722 52.758095 49.224010                                                 
C 37.400458 55.323450 30.117412                                                 
C 37.338229 55.273404 36.751665                                                 
C 38.729619 57.666040 30.090671                                                 
C 40.050009 55.269776 36.732155                                                 
C 37.302516 55.179667 43.040550                                                 
C 37.273335 55.072931 49.681386                                                 
C 38.638916 57.522855 43.054329                                                 
C 39.968993 55.084575 49.470997                                                 
C 41.351537 67.028051 29.337125                                                 
C 41.419389 66.932651 36.801013                                                 
C 42.755183 69.322205 29.285636                                                 
C 44.094128 66.992367 36.838515                                                 
C 41.357388 66.903388 42.966870                                                 
C 41.321472 66.707724 50.418110                                                 
C 42.739207 69.175106 42.967882                                                 
C 43.995846 66.765584 50.386919                                                 
H 37.647328 68.766583 29.216391                                                 
H 40.374291 68.717947 36.861248                                                 
H 37.650157 68.659570 43.239330                                                 
H 40.282522 68.490058 50.567343                                                 
C 41.391721 62.331137 29.752230                                                 
C 41.431803 62.274586 36.760898                                                 
C 42.736398 64.681379 29.527506                                                 
C 44.124862 62.282369 36.766792                                                 
C 41.347399 62.191975 43.010627                                                 
C 41.334568 62.067618 50.082879                                                 
C 42.710604 64.533874 42.953407                                                 
C 44.019253 62.080099 49.961648                                                 
H 33.616876 66.400735 29.153331                                                 
H 33.536711 66.368100 43.343746                                                 
C 37.309878 64.683878 29.383039                                                 
C 37.411047 64.574273 36.451668                                                 
C 38.681853 66.981439 29.329164                                                 
C 40.081990 64.645121 36.809957                                                 
C 37.295510 64.598305 43.226195                                                 
C 37.295109 64.364133 50.386688                                                 
C 38.670657 66.862148 43.159949                                                 
C 39.982771 64.425279 50.429865                                                 
C 61.712967 41.464777 29.394112                                                 
C 61.631969 41.230724 37.033278                                                 
C 63.022312 43.736845 29.361536                                                 
H 63.691192 41.237112 37.183942                                                 
C 61.737540 46.086949 29.378718                                                 
C 61.610518 45.930593 36.721112                                                 
C 63.033300 48.433732 29.385573                                                 
H 63.688825 45.947725 36.584043                                                 
H 65.087867 43.743844 29.291734                                                 
C 61.612375 41.162133 43.097284                                                 
C 61.515817 41.103330 50.592471                                                 
C 62.952604 43.459011 43.163635                                                 
H 63.580388 41.128451 50.712058                                                 
C 61.687937 45.799631 43.186139                                                 
C 61.526151 45.796169 50.290761                                                 
C 63.015727 48.179909 43.325237                                                 
H 63.569151 45.820613 50.669503                                                 
H 65.019505 43.439236 43.212739                                                 
C 61.673162 55.452692 29.421874                                                 
C 61.601439 55.260620 36.874257                                                 
C 62.936607 57.823545 29.345461                                                 
H 63.670478 55.253069 36.919000                                                 
H 65.063311 53.151927 29.297569                                                 
C 61.648870 55.227696 42.940271                                                 
C 61.506796 55.097195 50.389245                                                 
C 62.917668 57.564981 42.939187                                                 
H 63.567832 55.086803 50.562102                                                 
H 65.028302 52.898520 43.147741                                                 
C 61.736149 50.772447 29.459196                                                 
C 61.564810 50.610268 36.490523                                                 
C 63.001178 53.127250 29.429721                                                 
H 65.094945 48.438464 29.254265                                                 
C 61.682526 50.552318 43.179508                                                 
C 61.502067 50.449917 50.263005                                                 
C 62.960068 52.875478 43.094300                                                 
H 65.090868 48.188098 43.370763                                                 
H 41.712074 71.106449 29.244363                                                 
H 44.444395 71.063857 36.974555                                                 
H 41.703413 70.962144 42.975134                                                 
H 44.334974 70.842680 50.560024                                                 
C 45.363430 69.322508 29.232747                                                 
C 45.482245 69.283781 36.854078                                                 
H 46.403766 71.108802 29.153771                                                 
C 48.122595 69.296695 36.654285                                                 
C 49.446760 66.999080 29.370450                                                 
C 49.528626 67.022457 36.505840                                                 
H 50.472838 68.792528 29.258796                                                 
C 52.242111 66.962854 36.280045                                                 
H 49.144820 71.090988 36.619225                                                 
C 45.365716 69.160660 42.989783                                                 
C 45.383016 69.062727 50.516149                                                 
H 46.413327 70.941578 42.984084                                                 
C 48.011978 69.069017 50.587133                                                 
C 49.421120 66.807518 43.355104                                                 
C 49.424323 66.774112 50.527381                                                 
H 50.457499 68.596531 43.536210                                                 
C 52.075254 66.743888 50.617722                                                 
H 49.045356 70.855066 50.690541                                                 
H 57.322439 66.384019 36.735059                                                 
H 57.153279 66.230469 50.636074                                                 
H 53.272610 68.737758 36.046577                                                 
H 53.096054 68.534296 50.786467                                                 
C 57.539282 62.399104 29.558767                                                 
C 57.618619 62.312108 36.959097                                                 
H 58.556450 64.192003 29.395348                                                 
C 60.300211 62.240394 36.950832                                                 
C 57.517151 62.165463 43.133680                                                 
C 57.510293 62.159314 50.398290                                                 
H 58.533873 63.965329 43.064870                                                 
C 60.203179 62.082099 50.494237                                                 
C 53.493241 64.688514 29.439846                                                 
C 53.638337 64.656362 36.629132                                                 
C 56.267335 64.607023 36.808141                                                 
C 53.459905 64.463558 43.355383                                                 
C 53.446296 64.482867 50.500044                                                 
C 56.127978 64.443033 50.486790                                                 
C 61.611954 60.068400 29.354429                                                 
C 61.604240 59.952087 36.916161                                                 
H 62.618705 61.872274 29.256995                                                 
H 63.670131 59.930223 36.888217                                                 
H 65.002710 57.832021 29.255157                                                 
H 61.334760 64.028342 36.925868                                                 
C 61.587468 59.835474 42.902792                                                 
C 61.507501 59.791382 50.521059                                                 
H 62.598156 61.637329 42.855860                                                 
H 63.569411 59.774199 50.646216                                                 
H 64.984368 57.568242 42.951288                                                 
H 61.231436 63.868408 50.626001                                                 
H 63.543964 50.448389 50.656332                                                 
H 36.313082 34.651313 50.352088                                                 
H 36.269982 66.126441 50.784831                                                 
H 27.205248 50.480047 43.633331                                                 
H 54.498044 66.255221 43.515230                                                 
H 63.643673 50.613031 36.316979                                                 
H 54.521729 34.717039 43.231507                                                 
H 36.306737 34.836171 36.336721                                                 
H 36.379412 66.371405 36.253531                                                 
H 54.514904 66.479928 29.289095                                                 
H 27.327415 50.606436 29.296347                                                 
H 54.675046 34.968613 29.441901                                                 
Li 58.860109 60.120904 33.423819                                                
Li 30.325929 43.355193 46.827135                                                
Li 44.087643 34.072839 32.889550                                                
Li 46.817028 67.030608 46.940307                                                
Li 60.252970 43.332186 46.572226                                                
Li 31.805756 60.140198 32.916382                                                
Li 51.168635 64.438995 33.150012                                                
Li 39.926775 65.064248 32.922340                                                
Li 60.258359 53.114146 46.494698                                                
Li 30.128269 52.822836 47.025998                                                
Li 35.479919 38.860770 46.433631                                                
Li 55.346265 38.540426 46.849054                                                
Li 36.080179 38.486346 32.918157                                                
Li 50.554285 36.224535 33.337958                                                
Li 39.976490 36.399351 46.595376                                                
Li 50.748456 35.924532 46.681378                                                
Li 54.827558 62.599834 46.892507                                                
Li 40.311775 64.641908 46.544874                                                
Li 30.568824 53.308958 33.111024                                                
Li 30.666696 48.048278 33.095830                                                
Li 31.668915 59.663633 46.641228                                                
Li 60.692848 53.386721 33.025368                                                
Li 54.959561 38.796466 33.260444                                                
Li 60.769040 48.096136 32.939092                                                
Li 46.451516 67.250012 33.196260                                                
Li 59.359169 59.870864 46.834803                                                
Li 31.534241 41.296231 32.902135                                                
Li 44.558471 33.701477 46.481009                                                
Li 59.489471 41.248435 33.362972                                                
Li 34.904457 64.325859 39.591613                                                
Li 28.408722 47.954214 40.042999                                                
Li 34.807436 64.106665 47.135480                                                
Li 51.912798 66.377365 40.118775                                                
Li 38.855799 34.460230 39.601787                                                
Li 63.014885 48.558565 39.587205                                                
Li 62.718134 48.211392 47.107905                                                
Li 56.194684 36.517228 40.163243                                                
Li 28.472435 53.619459 40.051812                                                
Li 44.399576 48.628508 40.015277                                                
Li 44.242920 54.991200 39.993600                                                
%ENDBLOCK POSITIONS_ABS                                                         

--------------------------------------------------------------------------------
-------------------------------- END INPUT FILE --------------------------------
--------------------------------------------------------------------------------


 
<<<<<<<<<<<<<<<<<<<<<<<<<<<<<<<<< Full system >>>>>>>>>>>>>>>>>>>>>>>>>>>>>>>>>>
<<<<<<<<<<<<<<<<<<<<<<<<<<< PAW Dataset information >>>>>>>>>>>>>>>>>>>>>>>>>>>
File: ~/pp/paw/c_pbe_abinit.paw; rc = 1.25 bohr; shape type =  3; rshape = 1.25 bohr;
  Atomic number:  6;  ionic charge:  4.000000
    Partial Wave 1: l = 0
    Partial Wave 2: l = 0
    Partial Wave 3: l = 1
    Partial Wave 4: l = 1
  Core charge supplied for Nonlinear Core Corrections
File: ~/pp/paw/h_pbe_abinit.paw; rc = 0.90 bohr; shape type =  3; rshape = 0.90 bohr;
  Atomic number:  1;  ionic charge:  1.000000
    Partial Wave 1: l = 0
    Partial Wave 2: l = 0
File: ~/pp/paw/li_pbe_abinit.paw; rc = 1.42 bohr; shape type =  3; rshape = 1.42 bohr;
  Atomic number:  3;  ionic charge:  3.000000
    Partial Wave 1: l = 0
    Partial Wave 2: l = 0
    Partial Wave 3: l = 0
    Partial Wave 4: l = 1
    Partial Wave 5: l = 1
<<<<<<<<<<<<<<<<<<<<<<<<<<<<<<<<<<<<<<< >>>>>>>>>>>>>>>>>>>>>>>>>>>>>>>>>>>>>>>

-------------------------- Atom counting information ---------------------------
Symbol    Natoms    Nngwfs    Nprojs
  C        484      1936      3872
  H        108       108       216
  Li        40       200       360
.......   ......    ......    ......
Totals:    632      2244      4448
--------------------------------------------------------------------------------

=============================== PSINC grid sizes ===============================
                      Simulation cell:  189 x 189 x 189
                              FFT-box:  117 x 117 x 117
                                  PPD:    7 x   7 x   1
Grid space d1=  0.499927596032a0 (KE cutoff=  30.39413Eh = 827.06648eV)
Grid space d2=  0.499927596032a0 (KE cutoff=  30.39413Eh = 827.06648eV)
Grid space d3=  0.499927596032a0 (KE cutoff=  30.39413Eh = 827.06648eV)
================================================================================
  
WARNING in cell_grid_distribute:
Average of less than one 23-slab per node, so workload cannot be
equally balanced between nodes.

********************* Fourier parallelisation information **********************
       Coarse grid (whole simulation cell) dimensions:    189   189   189
          Real-space ('12') slabs/node (min max mean):      1     2     1
         Recip-space ('23') slabs/node (min max mean):      0     1     0
********************************************************************************

********************* Fourier parallelisation information **********************
       Double grid (whole simulation cell) dimensions:    378   378   378
          Real-space ('12') slabs/node (min max mean):      2     3     2
         Recip-space ('23') slabs/node (min max mean):      1     2     1
********************************************************************************

Atom SCF Calculation for C  : Z (AE atom) =   6 : Z (PS atom) =   4
Config String: 2s2 2p2
Orbitals (num,occ):  2     2.00 2.00
Orbitals   (num,l):  2        0    1
Real-space Grid (nr,dr,rmax): 1377    0.0065406977    9.0000000000
Spherical Bessel Basis (nsws,lmax,cutoff):   37    2  183.0099912382
Confining potential (l,width,scale):  0    3.0000000000  100.0000000000
Confining potential (l,width,scale):  1    3.0000000000  100.0000000000
  1         -5.4350126632   -1.2715272878    4.5135247139   -1.5681949477
  2         -5.3876836850   -1.3562195125    4.4235426751   -1.5380057521
  3         -5.3928844498   -1.3758175853    4.4021699684   -1.5318377811
  4         -5.3988962903   -1.3800385428    4.3975423583   -1.5307324410
  5         -5.4018428823   -1.3823489590    4.3950111904   -1.5301555648
  6         -5.4033571720   -1.3835805046    4.3936635548   -1.5298576834
  7         -5.4041480647   -1.3842324820    4.3929512000   -1.5297032953
  8         -5.4045641108   -1.3845769138    4.3925755232   -1.5296229456
  9         -5.4047838258   -1.3847587737    4.3923775340   -1.5295810042
 10         -5.4049001347   -1.3848548089    4.3922731819   -1.5295590658
 11         -5.4049618018   -1.3849055476    4.3922181562   -1.5295475724
 12         -5.4049945351   -1.3849323732    4.3921891206   -1.5295415432
 13         -5.4050119258   -1.3849465673    4.3921737867   -1.5295383767
 14         -5.4050211723   -1.3849540841    4.3921656816   -1.5295367119
 15         -5.4050260920   -1.3849580684    4.3921613935   -1.5295358358
 16         -5.4050287113   -1.3849601822    4.3921591228   -1.5295353742
 17         -5.4050301068   -1.3849613045    4.3921579192   -1.5295351307
 18         -5.4050308507   -1.3849619010    4.3921572806   -1.5295350022
 19         -5.4050312476   -1.3849622183    4.3921569415   -1.5295349343
 20         -5.4050314594   -1.3849623873    4.3921567612   -1.5295348984
 21         -5.4050315725   -1.3849624773    4.3921566653   -1.5295348794
 22         -5.4050316330   -1.3849625253    4.3921566143   -1.5295348693
Atom SCF converged after  22 iterations to a total energy of     -5.40503163

Atom SCF Calculation for H  : Z (AE atom) =   1 : Z (PS atom) =   1
Config String: 1s1
Orbitals (num,occ):  1     1.00
Orbitals   (num,l):  1        0
Real-space Grid (nr,dr,rmax): 1377    0.0065406977    9.0000000000
Spherical Bessel Basis (nsws,lmax,cutoff):   37    1  183.0099912382
Confining potential (l,width,scale):  0    3.0000000000  100.0000000000
  1         -0.3605254152   -0.2399954029    0.2820952946   -0.2424203210
  2         -0.4156854077   -0.2398249290    0.2871789324   -0.2464796203
  3         -0.4412552402   -0.2379720642    0.2899127187   -0.2499011370
  4         -0.4517265951   -0.2371980236    0.2908966173   -0.2514141636
  5         -0.4557775773   -0.2369735141    0.2911607883   -0.2519713623
  6         -0.4573363459   -0.2369240355    0.2912108681   -0.2521663171
  7         -0.4579443228   -0.2369187864    0.2912112833   -0.2522344454
  8         -0.4581858602   -0.2369215483    0.2912049187   -0.2522587615
  9         -0.4582834939   -0.2369242589    0.2912002081   -0.2522677042
 10         -0.4583235236   -0.2369258837    0.2911975892   -0.2522710965
 11         -0.4583401154   -0.2369267223    0.2911962825   -0.2522724192
 12         -0.4583470483   -0.2369271266    0.2911956643   -0.2522729467
 13         -0.4583499624   -0.2369273145    0.2911953803   -0.2522731607
 14         -0.4583511926   -0.2369274000    0.2911952521   -0.2522732486
 15         -0.4583517136   -0.2369274385    0.2911951948   -0.2522732850
 16         -0.4583519349   -0.2369274556    0.2911951693   -0.2522733002
 17         -0.4583520290   -0.2369274632    0.2911951581   -0.2522733066
Atom SCF converged after  17 iterations to a total energy of     -0.45835203

Atom SCF Calculation for Li : Z (AE atom) =   3 : Z (PS atom) =   3
Config String: 1s2 2s1 2p0
Orbitals (num,occ):  3     2.00 1.00 0.00
Orbitals   (num,l):  3        0    0    1
Real-space Grid (nr,dr,rmax): 1377    0.0065406977    9.0000000000
Spherical Bessel Basis (nsws,lmax,cutoff):   37    2  183.0099912382
Confining potential (l,width,scale):  0    3.0000000000  100.0000000000
Confining potential (l,width,scale):  1    3.0000000000  100.0000000000
  1         -6.0640888065   -4.6655401716    2.5388576516   -0.9989538799
  2         -6.9627542978   -4.0954079129    2.9808988108   -1.1965571426
  3         -7.2692687601   -3.8889996707    3.2029735703   -1.3193883705
  4         -7.3784440298   -3.8322099748    3.2868571989   -1.3711018151
  5         -7.4170278248   -3.8191968371    3.3144974220   -1.3911175539
  6         -7.4303549880   -3.8172386945    3.3228486489   -1.3986896266
  7         -7.4348052089   -3.8175483495    3.3251259310   -1.4015352495
  8         -7.4362242328   -3.8180607346    3.3256233205   -1.4026016384
  9         -7.4366459715   -3.8184145665    3.3256561549   -1.4029998726
 10         -7.4367560626   -3.8186169740    3.3256001574   -1.4031477379
 11         -7.4367765260   -3.8187239825    3.3255481763   -1.4032021548
 12         -7.4367751741   -3.8187782620    3.3255144587   -1.4032219192
 13         -7.4367707398   -3.8188051288    3.3254952336   -1.4032289600
 14         -7.4367680349   -3.8188156035    3.3254870176   -1.4032309087
 15         -7.4367661982   -3.8188217406    3.3254819951   -1.4032318132
 16         -7.4367650112   -3.8188253257    3.3254789583   -1.4032322224
 17         -7.4367642682   -3.8188274151    3.3254771375   -1.4032324006
 18         -7.4367638134   -3.8188286307    3.3254760529   -1.4032324736
 19         -7.4367635392   -3.8188293370    3.3254754103   -1.4032325004
 20         -7.4367633760   -3.8188297469    3.3254750310   -1.4032325080
 21         -7.4367632796   -3.8188299846    3.3254748079   -1.4032325082
Atom SCF converged after  21 iterations to a total energy of     -7.43676328

Determining parallel strategy ...
... using space-filling curve
... NGWF load balancing: max     16;  min     12;  average     14
... Projector load balancing: max     32;  min     24;  average     28
... done
Calculating Ewald energy ...
              Ewald: real-space energy =   36715.728254
        Ewald: reciprocal-space energy =   36572.018921
         Ewald: (sum_charge)**2 Energy =    2887.641290
         Ewald: (sum_charge**2) Energy =     254.604576
                          Ewald Energy =   70145.501309
======================= Empirical dispersion information =======================
Model : Grimme D2
Dispersion Correction Energy: -0.23873647E+01 Hartree
================================================================================
Basis initialisation ...... NGWF spheres initialised
... Projector spheres initialised
... NGWF tight boxes initialised
... Projector tight boxes initialised
... Tight-boxes gathered
... NGWF basis size (local,global):     283166  45262660
... PAW projector initialisation
... done

============================= Charge Augmentation ==============================
                           Aug box size:   13 x  13 x  13
================================================================================

========================== Sparse matrix information ===========================
                        Overlap matrix filling:  37.11%
                        Density kernel filling: 100.00%
              NGWF-Proj overlap matrix filling:  10.37%
                    Aug Overlap matrix filling:  41.59%
                    Hamiltonian matrix filling:  41.59%
                  NGWF diagonal matrix filling:   0.18%
                             KS matrix filling: 100.00% 
                           KSKS matrix filling: 100.00% 
================================================================================

Sparse matrix initialisation ... done
NGWF initialisation ...... done
============ Calculation of NGWF S^-1 using Hotelling algorithm ================ 
         Iteration  |  Frobenius norm and Maximum abs value    (of I-S*S_n^-1)   
               1       0.47099112E+02     0.99708145E+00
               2       0.46840389E+02     0.99417951E+00
               3       0.46358391E+02     0.98842394E+00
               4       0.45514426E+02     0.97709638E+00
               5       0.44177657E+02     0.95510910E+00
               6       0.42315742E+02     0.91340819E+00
               7       0.39983133E+02     0.83727287E+00
               8       0.37214126E+02     0.79289684E+00
               9       0.34147326E+02     0.77355299E+00
              10       0.31100546E+02     0.75106282E+00
              11       0.28050075E+02     0.73414659E+00
              12       0.24398556E+02     0.71824136E+00
              13       0.19622402E+02     0.69171345E+00
              14       0.13755628E+02     0.64489688E+00
              15       0.79594599E+01     0.56613564E+00
              16       0.41284263E+01     0.44327959E+00
              17       0.24710760E+01     0.35937652E+00
              18       0.14884090E+01     0.24141381E+00
              19       0.67137726E+00     0.11019682E+00
              20       0.17313128E+00     0.34232679E-01
              21       0.16732353E-01     0.39737924E-02
              22       0.20601654E-03     0.54402885E-04
              23       0.36414804E-07     0.10288435E-07
              24       0.71101427E-13     0.62172489E-14
================================================================================
Calculating core density ...
================================= Core Density =================================
               Core den box size:   21 x  21 x  21
================================================================================
 ... done
Up spin density kernel initialisation ...... done
Down spin density kernel initialisation ...... done

Writing density kernel to file "40/592nano.dkn" ... done

>>> Optimising kernel for current NGWFs:

--------------------------- Ensemble-DFT optimisation --------------------------
Running ScaLAPACK on  160 processor(s).

--------------------------------------------------------------------------------
  Iter                              Commutator    Free_energy(A=E-TS)     DeltaA
#    0                          0.001272030369   -3118.69989557026565  -3.12E+03

Step                       =       0.381966011250
Energy                     =   -3118.663272200257
Entropy (-TS)              =      -0.036623370184
Free energy (A=E-TS)       =   -3118.699895570266
Est. 0K Energy 0.5*(E+A)   =   -3118.681583885261
Residual Non-orthogonality =       0.000000000000
Residual N_electrons       =       0.000000000176

Spin          Integrated_Ne            Fermi_level     Delta_Fermi_level
   1      1082.000000000381        -0.230487411949             -2.30E-01
   2      1082.000000000381        -0.230487411949             -2.30E-01

                           Spin 1           |                 Spin 2           |
     Orb |    H-eigenvalues     Occupancies |    H-eigenvalues     Occupancies |
       1 |    -1.9008332771    1.0000000000 |    -1.9008332771    1.0000000000 | 
                          ------                             ------
    1078 |    -0.2408936518    0.9639464632 |    -0.2408936518    0.9639464632 | 
    1079 |    -0.2367071405    0.8769689717 |    -0.2367071405    0.8769689717 | 
    1080 |    -0.2337429762    0.7365329993 |    -0.2337429762    0.7365329993 | 
    1081 |    -0.2318229293    0.6038954851 |    -0.2318229293    0.6038954851 | 
    1082 |    -0.2293048699    0.4077155485 |    -0.2293048699    0.4077155485 | 
                 - Gap at zero temperature - |     - Gap at zero temperature -
    1083 |    -0.2290093753    0.3853911931 |    -0.2290093753    0.3853911931 | 
    1084 |    -0.2280430336    0.3160739309 |    -0.2280430336    0.3160739309 | 
    1085 |    -0.2279334677    0.3086428319 |    -0.2279334677    0.3086428319 | 
    1086 |    -0.2264963720    0.2209272815 |    -0.2264963720    0.2209272815 | 
    1087 |    -0.2233957549    0.0962704897 |    -0.2233957549    0.0962704897 | 
                          ------                             ------
    2244 |     0.5562169667    0.0000000000 |     0.5562169667    0.0000000000 | 

                       |  Abs_value |  Threshold | Converged
     Delta_Free_energy |   3.12E+03 |   1.00E-06 |        No
     Delta_Energy      |   3.12E+03 |   1.00E-04 |        No
     Delta_Entropy     |   3.66E-02 |   1.00E-04 |        No
     Commutator        |   1.27E-03 |   1.00E-05 |        No
     Delta_Fermi_level |   2.30E-01 |   1.00E-03 |        No

  Line search of the free energy minimum:
  Step_type        Step             Free_energy   Predicted_free_energy
.   Initial    0.000000    -3118.69989557026565
.    Trial1    0.381966    -3119.92662560513327
.    Trial2    0.618034    -3118.81111562957130
. Quadratic    0.316023    -3119.94351082131288    -3119.98246951164901

--------------------------------------------------------------------------------
  Iter                              Commutator    Free_energy(A=E-TS)     DeltaA
#    1                          0.000595372675   -3119.94351082131288  -1.24E+00

Step                       =       0.316023426350
Energy                     =   -3119.910090403349
Entropy (-TS)              =      -0.033420417876
Free energy (A=E-TS)       =   -3119.943510821313
Est. 0K Energy 0.5*(E+A)   =   -3119.926800612331
Residual Non-orthogonality =       0.000000000000
Residual N_electrons       =      -0.000000000088

Spin          Integrated_Ne            Fermi_level     Delta_Fermi_level
   1      1081.999999999877        -0.206248693605              2.42E-02
   2      1081.999999999697        -0.206248693595              2.42E-02

                           Spin 1           |                 Spin 2           |
     Orb |    H-eigenvalues     Occupancies |    H-eigenvalues     Occupancies |
       1 |    -1.9275852030    1.0000000000 |    -1.9275852030    1.0000000000 | 
[...]
 C   158 -- C   288       -0.06     -0.00      5.42911
 C     2 -- C   348       -0.08     -0.00      5.42923
 C   318 -- C   380       -0.07     -0.00      5.42976
 C   186 -- C   212       -0.08     -0.00      5.42993
 C   445 -- C   467       -0.07     -0.00      5.43026
 C   470 -- C   547       -0.08      0.00      5.43030
 C     4 -- Li  631       -0.06      0.00      5.43090
 C   199 -- C   241       -0.07     -0.00      5.43094
 C   420 -- C   444       -0.08     -0.00      5.43095
 C   330 -- C   394       -0.08     -0.00      5.43123
 C     6 -- C   246       -0.08      0.00      5.43123
 C    38 -- C    56       -0.08      0.00      5.43163
 C   285 -- C   287       -0.08     -0.00      5.43189
 C    35 -- C   497       -0.07      0.00      5.43225
 C   316 -- C   390       -0.08      0.00      5.43237
 C    83 -- C    85       -0.08     -0.00      5.43302
 C   249 -- C   353       -0.07     -0.00      5.43448
 C   262 -- C   292       -0.08     -0.00      5.43499
 C     2 -- C   270       -0.08      0.00      5.43544
 C   201 -- C   239       -0.08     -0.00      5.43545
 C   227 -- C   309       -0.08     -0.00      5.43563
 C    52 -- C   338       -0.08     -0.00      5.43578
 H   146 -- Li  603       -0.03      0.00      5.43635
 C   440 -- C   488       -0.08      0.00      5.43644
 C    96 -- C   567       -0.08     -0.00      5.43662
 C    39 -- C   516       -0.07     -0.00      5.43673
 C   212 -- C   230       -0.08     -0.00      5.43685
 C   268 -- C   286       -0.08      0.00      5.43776
 C   253 -- C   413       -0.08     -0.00      5.43793
 C   247 -- C   355       -0.07     -0.00      5.43852
 C   406 -- C   440       -0.08      0.00      5.43862
 C    72 -- C   560       -0.08     -0.00      5.43864
 C   198 -- C   204       -0.08      0.00      5.43905
 C   368 -- C   394       -0.08     -0.00      5.43936
 C   175 -- C   256       -0.06      0.00      5.43949
 C    38 -- C   104       -0.08      0.00      5.43968
 C    51 -- C   521       -0.08     -0.00      5.43973
 C   153 -- C   215       -0.06     -0.00      5.44058
 C    99 -- C   521       -0.08     -0.00      5.44061
 C   231 -- C   323       -0.08     -0.00      5.44064
 C   444 -- C   492       -0.08      0.00      5.44080
 C   185 -- C   235       -0.07      0.00      5.44141
 C   429 -- C   443       -0.06     -0.00      5.44192
 C   205 -- C   263       -0.08     -0.00      5.44210
 C   466 -- C   538       -0.08      0.00      5.44475
 C   181 -- C   183       -0.08     -0.00      5.44590
 C   343 -- C   365       -0.08     -0.00      5.44749
 C    17 -- C   281       -0.07     -0.00      5.44819
 C   197 -- C   295       -0.08     -0.00      5.45097
 C   333 -- C   365       -0.08     -0.00      5.45126
 C   261 -- C   263       -0.08     -0.00      5.45135
 C    34 -- C    52       -0.08      0.00      5.45431
 C    34 -- C   100       -0.08     -0.00      5.45457
 C    39 -- C   506       -0.07      0.00      5.45751
 C   427 -- C   445       -0.07      0.00      5.46197
 Li  613 -- Li  624       -0.11     -0.00      5.46215
 C    80 -- C   538       -0.06     -0.00      5.46265
 C   423 -- C   489       -0.07      0.00      5.46340
 C    55 -- C   525       -0.07      0.00      5.46564
 C   188 -- C   286       -0.06     -0.00      5.46645
 C   111 -- Li  599       -0.07      0.00      5.46923
 H   130 -- Li  619       -0.02      0.00      5.46985
 C   252 -- C   286       -0.06      0.00      5.47048
 C   231 -- C   241       -0.06     -0.00      5.47234
 C   254 -- C   284       -0.06     -0.00      5.47445
 C   338 -- C   380       -0.06      0.00      5.47526
 C    76 -- C   564       -0.06     -0.00      5.47696
 C   190 -- C   284       -0.06     -0.00      5.47882
 C   233 -- C   239       -0.06     -0.00      5.48454
 C   364 -- C   390       -0.06      0.00      5.48614
 Li  599 -- Li  617       -0.14      0.00      5.49137
 Li  597 -- Li  628       -0.11     -0.00      5.49278
 H   561 -- Li  609       -0.02      0.00      5.50020
 H   590 -- Li  599       -0.02      0.00      5.50178
 C   450 -- Li  631       -0.05      0.00      5.50756
 C    91 -- Li  599       -0.07     -0.00      5.50894
 Li  601 -- Li  628       -0.12     -0.00      5.51938
 H   370 -- Li  615       -0.02     -0.00      5.52879
 H   582 -- Li  607       -0.02      0.00      5.53074
 H   138 -- Li  620       -0.02      0.00      5.53327
 C   241 -- Li  626       -0.06     -0.00      5.54308
 H   141 -- Li  605       -0.02      0.00      5.55424
 C   445 -- Li  622       -0.06     -0.00      5.56143
 Li  610 -- Li  624       -0.11     -0.00      5.56175
 C   527 -- Li  627       -0.06     -0.00      5.56223
 H   474 -- Li  610       -0.03      0.00      5.56681
 H   135 -- Li  595       -0.02      0.00      5.56822
 C   233 -- Li  626       -0.07      0.00      5.57663
 H   131 -- Li  594       -0.02      0.00      5.57744
 H   544 -- Li  596       -0.02     -0.00      5.57767
 C   324 -- Li  620       -0.04      0.00      5.58366
 C   286 -- Li  623       -0.05      0.00      5.58732
 H   535 -- Li  617       -0.02      0.00      5.58876
 H   162 -- Li  612       -0.02     -0.00      5.59162
 H   553 -- Li  599       -0.02     -0.00      5.59430
 H   152 -- Li  607       -0.02      0.00      5.59527
 H   369 -- Li  615       -0.01      0.00      5.59829
 H   370 -- Li  621       -0.02     -0.00      5.59864
 H   519 -- Li  601       -0.03     -0.00      5.60248
 C   309 -- Li  606       -0.05     -0.00      5.61095
 C   163 -- Li  619       -0.05      0.00      5.61947
 C   238 -- Li  605       -0.06      0.00      5.62538
 H   157 -- Li  612       -0.02     -0.00      5.62626
 H   561 -- Li  618       -0.02     -0.00      5.62656
 H   176 -- Li  602       -0.02      0.00      5.62957
 H   401 -- Li  598       -0.02     -0.00      5.63035
 C   163 -- Li  623       -0.07     -0.00      5.64153
 C   253 -- Li  611       -0.05     -0.00      5.64378
 C   193 -- Li  612       -0.06      0.00      5.64629
 H   402 -- Li  613       -0.02      0.00      5.64765
 C   257 -- Li  611       -0.06      0.00      5.64834
 H   154 -- Li  607       -0.01      0.00      5.65179
 C    87 -- Li  609       -0.06     -0.00      5.65421
 C   482 -- Li  610       -0.05      0.00      5.65532
 C   198 -- Li  603       -0.05      0.00      5.65877
 H   156 -- Li  620       -0.02      0.00      5.66120
 Li  623 -- Li  630       -0.10     -0.00      5.66561
 H   591 -- Li  612       -0.02     -0.00      5.66842
=============================================================


============== Orbital energy and occupancy information for spin 1 =============

      Total number of orbitals:    2244
        Occupancy sum (kernel):    1081.999999983
   Occupancy sum (eigenvalues):    1081.999999983
                 HOMO-LUMO gap:       0.002722959 Eh
                 Mid-gap level:      -0.076351954 Eh

                        Orbital | Energy (Eh) | Occupancy
                            1    -1.841958632   1.0000000
                        .......   ...........   .........
                         1073    -0.098360721   0.9984665
                         1074    -0.094804593   0.9952938
                         1075    -0.093561027   0.9930145
                         1076    -0.092548676   0.9903223
                         1077    -0.091154119   0.9851677
                         1078    -0.089007806   0.9710329
                         1079    -0.084781536   0.8977671
                         1080    -0.082632195   0.8167182
                         1081    -0.079461112   0.6212668
                         1082    -0.077713434   0.4846390
                        ....... -- gap at 0K -- .........
                         1083    -0.074990475   0.2866653
                         1084    -0.074077571   0.2312674
                         1085    -0.073165034   0.1848308
                         1086    -0.072245412   0.1439995
                         1087    -0.071635663   0.1217728
                         1088    -0.070741312   0.0945419
                         1089    -0.070092944   0.0786019
                         1090    -0.066953732   0.0304985
                         1091    -0.065808720   0.0214237
                         1092    -0.063881492   0.0118163
                        .......   ...........   .........
                         2244     0.771639950   0.0000000

================================================================================

============== Orbital energy and occupancy information for spin 2 =============

      Total number of orbitals:    2244
        Occupancy sum (kernel):    1082.000000019
   Occupancy sum (eigenvalues):    1082.000000019
                 HOMO-LUMO gap:       0.000912904 Eh
                 Mid-gap level:      -0.074534023 Eh

                        Orbital | Energy (Eh) | Occupancy
                            1    -1.841958632   1.0000000
                        .......   ...........   .........
                         1074    -0.094804593   0.9952938
                         1075    -0.093561027   0.9930145
                         1076    -0.092548676   0.9903223
                         1077    -0.091154119   0.9851677
                         1078    -0.089007806   0.9710329
                         1079    -0.084781536   0.8977671
                         1080    -0.082632195   0.8167182
                         1081    -0.079461112   0.6212668
                         1082    -0.077713434   0.4846390
                         1083    -0.074990475   0.2866653
                        ....... -- gap at 0K -- .........
                         1084    -0.074077571   0.2312675
                         1085    -0.073165034   0.1848307
                         1086    -0.072245412   0.1439995
                         1087    -0.071635663   0.1217728
                         1088    -0.070741312   0.0945419
                         1089    -0.070092944   0.0786019
                         1090    -0.066953732   0.0304985
                         1091    -0.065808720   0.0214237
                         1092    -0.063881492   0.0118163
                         1093    -0.063318910   0.0097653
                        .......   ...........   .........
                         2244     0.771639950   0.0000000

================================================================================

===================== Writing canonical molecular orbitals =====================
    Spin 1
| Orbital  Energy (eV)  Norm     |
| HOMO     -2.11469015  1.000000 | Writing "40/592nano_HOMO_UP.cube" ... done
Writing "40/592nano_HOMO_UP.dx" ... done
| LUMO     -2.04059465  1.000000 | Writing "40/592nano_LUMO_UP.cube" ... done
Writing "40/592nano_LUMO_UP.dx" ... done
================================================================================

===================== Writing canonical molecular orbitals =====================
    Spin 2
| Orbital  Energy (eV)  Norm     |
| HOMO     -2.04059465  1.000000 | Writing "40/592nano_HOMO_DN.cube" ... done
Writing "40/592nano_HOMO_DN.dx" ... done
| LUMO     -2.01575327  1.000000 | Writing "40/592nano_LUMO_DN.cube" ... done
Writing "40/592nano_LUMO_DN.dx" ... done
================================================================================

================== Local Density of States (LDOS) calculation ==================
Writing "40/592nano_UP_LDOS.txt" ...  done
================================================================================

================== Local Density of States (LDOS) calculation ==================
Writing "40/592nano_DN_LDOS.txt" ...  done
================================================================================
 
=============== Density of States (DOS) calculation for UP spin ================
Writing "40/592nano_UP_DOS.txt" ...  done
================================================================================
 
============== Density of States (DOS) calculation for DOWN spin ===============
Writing "40/592nano_DN_DOS.txt" ...  done
================================================================================
 
Writing bands to file "40/592nano.val_bands" ... done
 
================ Projected Density of States (pDOS) calculation ================
 
Constructing AM resolved functions  ...... done
Writing NGWF plot files in formats: CUBE DX ...  done
 
Performing overlap integrals ...  done
 
Computing pDOS weights ...  done
 
All bands spilling parameter =   3.11 %
Occupancy-weighted spilling parameter =   0.85 %
 
 => Outputting data for OptaDOS <=
 
Writing pDOS weights to file "40/592nano.val_pdos_bin" ... done
 
Writing band gradients to file "40/592nano.val_dome_bin" ... done
 
Writing Castep output cell file to "40/592nano-out.cell" ... done
 
 => Computing Gaussian smeared pDOS for UP spin<= 
Writing "40/592nano_UP_PDOS.txt" ...  done
 
 => Computing Gaussian smeared pDOS for DOWN spin<= 
Writing "40/592nano_DN_PDOS.txt" ...  done
 
 => Computing Occupancy-weighted Gaussian smeared pDOS for UP spin<= 
Writing "40/592nano_occ_UP_PDOS.txt" ...  done
  => Band centres for UP spin channel: 
 S band centre of group 1:  -18.724417 eV
 P band centre of group 1:   -8.343201 eV
  Band centres for UP spin channel done. <= 
  => Integrated number of electrons in each AM band for UP spin channel: 
 S num electrons of group 1:  304.757224
 P num electrons of group 1:  768.082147
  Integrated number of electrons for UP spin channel done. <= 
 
 => Computing Occupancy-weighted Gaussian smeared pDOS for DOWN spin<= 
Writing "40/592nano_occ_DN_PDOS.txt" ...  done
  => Band centres for DOWN spin channel: 
 S band centre of group 1:  -18.724417 eV
 P band centre of group 1:   -8.343201 eV
  Band centres for DOWN spin channel done. <=
  => Integrated number of electrons in each AM band for DOWN spin channel: 
 S num electrons of group 1:  304.757224
 P num electrons of group 1:  768.082147
  Integrated number of electrons for DOWN spin channel done. <=
================================================================================

------------------------------ TIMING INFORMATION ------------------------------
AVERAGE TIME:   16283.786s on    160 node(s)                                    
TOTAL TIME:     16283.800s on    160 node(s)                                    
================= AVERAGE TIMINGS FROM ALL NODES (CUMULATIVE) ==================
|| TAG                                    #calls    cpu time   %total  Gflops ||
|| work_imbalance                       :     1        0.00s   0.000%  ------ ||
|| paw_tcore_density                    :     1        0.01s   0.000%  ------ ||
|| sparse_set_to_garbage                :   237        0.01s   0.000%  ------ ||
|| paw_sphere_density_on_grid           :     1        0.01s   0.000%  ------ ||
|| basis_extract_function_from_box      :   392        0.02s   0.000%  ------ ||
|| paw_dij_hartree                      :   934        0.03s   0.000%  ------ ||
|| ngwfs_initialise_from_radial         :     2        0.04s   0.000%  ------ ||
|| ewald_calculate_energy               :     1        0.12s   0.001%  ------ ||
|| density_init_guess_real              :     1        0.24s   0.001%  ------ ||
|| paw_dataset_init                     :     3        0.33s   0.002%  ------ ||
|| paw_tcore_hartree_on_grid            :     1        0.37s   0.002%  ------ ||
|| pseudo_make_structure_factor         :     1        0.52s   0.003%  ------ ||
|| sparse_init                          :     1        0.97s   0.006%  ------ ||
|| dense_normal_eigensolve              :     1        1.06s   0.007%  ------ ||
|| restart_kernel_write                 :    15        1.57s   0.010%  ------ ||
|| paw_species_calc_proj_prec_mat       :     1        2.20s   0.013%  ------ ||
|| sparse_embed_hotelling_invert_embed  :    27        5.21s   0.032%  ------ ||
|| sw_init                              :     1        7.54s   0.046%  ------ ||
|| fourier_apply_box_pair               :   982       11.31s   0.069%  2.294k ||
|| ngwf_gradient_coeffs                 :    14       12.20s   0.075%  ------ ||
|| augmentation_screen_dij              :   698       13.72s   0.084%  ------ ||
|| projectors_init_fftbox_recip         :    57       21.80s   0.134%  ------ ||
|| basis_copy_function_to_box           : 26633       35.95s   0.221%  ------ ||
|| hartree_on_grid                      :   693       36.66s   0.225%  ------ ||
|| integrals_kinetic                    :    27       37.53s   0.230%  ------ ||
|| projectors_func_ovlp_box             :    28       40.29s   0.247%  ------ ||
|| paw_dij_xc                           :   934       40.82s   0.251%  ------ ||
|| function_ops_brappd_ketppd           :    56       48.46s   0.298%  ------ ||
|| hamiltonian_energy_components        :     3       74.06s   0.455%  ------ ||
|| sparse_trace                         : 17424       78.66s   0.483%  ------ ||
|| eigenstates_pdos                     :     1      100.82s   0.619%  ------ ||
|| augmentation_density_on_grid         :   693      116.88s   0.718%  ------ ||
|| aug_nonlocal_mat                     :   920      123.80s   0.760%  ------ ||
|| fourier_apply_cell_forward           :  6229      127.05s   0.780% 170.650 ||
|| fourier_apply_cell_backward          :  6230      135.68s   0.833% 159.813 ||
|| basis_dot_function_with_box          : 5.817M     160.97s   0.989%  ------ ||
|| restart_ngwfs_tightbox_output        :    13      181.64s   1.115%  ------ ||
|| eigenstates_calculate                :     1      199.88s   1.227%  ------ ||
|| xc_energy_potential                  :   692      265.99s   1.633%  ------ ||
|| sparse_product                       : 15051      401.11s   2.463%  ------ ||
|| dense_eigensolve                     :  1324      439.78s   2.701%  ------ ||
|| basis_add_function_to_box            : 17.50M     573.47s   3.522%  ------ ||
|| integrals_locpot_mat_els_batch       :   469      601.89s   3.696%  ------ ||
|| projectors_gradient_batch            :    14      630.72s   3.873%  ------ ||
|| cell_grid_extract_box_real           : 14952      647.10s   3.974%  ------ ||
|| cell_grid_deposit_box_real           : 49985      676.01s   4.151%  ------ ||
|| projectors_grad_precond_batch        :    14      889.61s   5.463%  ------ ||
|| density_fftbox_deposit_to_cell       : 22176     1240.06s   7.615%  ------ ||
|| properties_calculate                 :     1     1370.55s   8.417%  ------ ||
|| density_batch_row_sums               :   693     1541.65s   9.467%  ------ ||
|| edft_diag_ngwf_ham                   :  1322     1654.68s  10.162%  ------ ||
|| ngwf_gradient_build_batch            :    14     1683.94s  10.341%  ------ ||
|| potential_apply_to_ngwf_batch        :   469     1777.46s  10.915%  ------ ||
|| ngwf_gradient_batch                  :    14     1838.20s  11.289%  ------ ||
|| fourier_apply_box                    : 84489     1843.11s  11.319%  3.984k ||
|| ngwf_gradient_lnv                    :    14     1860.07s  11.423%  ------ ||
|| density_fftbox_interpolate_multiply  : 22176     2115.81s  12.993%  ------ ||
|| integrals_locpot_dbl_grid            :   469     2396.05s  14.714%  ------ ||
|| edft_apply_smearing_operator         :   661     2740.19s  16.828%  ------ ||
|| density_batch_interp_deposit         :   693     3960.45s  24.321%  ------ ||
|| density_on_dbl_grid                  :   693     5616.10s  34.489%  ------ ||
|| hamiltonian_lhxc_calculate           :   688     6169.98s  37.890%  ------ ||
|| edft_calculate                       :    14    11535.81s  70.842%  ------ ||
|| ngwf_cg_optimise                     :     1    14892.84s  91.458%  ------ ||
|| total_time                           :     1    16283.79s 100.000%  ------ ||
================================================================================
Overhead of generating timer report: 
- 0 ms averaging over threads,
- 20 ms ensuring consistency across MPI ranks,
- 0 ms printing in order.

Job completed: 06-10-2020 05:01 (+0100)

