 +---------------------------------------------------------------+
 |                                                               |
 |        ####### #     # ####### ####### ####### ######         |
 |        #     # ##    # #          #    #       #     #        |
 |        #     # # #   # #          #    #       #     #        |
 |        #     # #  #  # #####      #    #####   ######         |
 |        #     # #   # # #          #    #       #              |
 |        #     # #    ## #          #    #       #              |
 |        ####### #     # #######    #    ####### #              |
 |                                                               |
 |        Linear-Scaling Ab Initio Total Energy Program          |
 |                                                               |
 |          Release for academic collaborators of ODG            |
 |                                             Version 6.1.3.6   |
 |                                                               |
 +---------------------------------------------------------------+
 |                                                               |
 |  Authors:                                                     |
 |  Jacek Dziedzic, Peter D. Haynes, Nicholas D. M. Hine,        |
 |  Arash A. Mostofi, Mike C. Payne and Chris-Kriton Skylaris    |
 |                                                               |
 |  Contributors:                                                |
 |  J. Aarons, L. Andrinopoulos, P. W. Avraam, R. A. Bell,       |
 |  A. Bhandari, G. A. Bramley, R. J. Charlton, S. J. Clark,     |
 |  R. J. Clements, G. C. Constantinescu, F. Corsetti,           |
 |  N. Corsini, O. Dieguez, S. M. M. Dubois, K. K. B. Duff,      |
 |  J. M. Escartin, A. Greco, H. Helal, Q. O. Hill, L. P. Lee,   |
 |  J.-H. Li, E. B. Linscott, G. Moynihan, D. D. O`Regan,        |
 |  O. K. Okan, M. J. S. Phipps, C. J. Pickard,                  |
 |  J. C. A. Prentice, M. I. J. Probert, L. E. Ratcliff,         |
 |  M. Robinson, A. Ruiz Serrano, J. S. Spencer, E. W. Tait,     |
 |  G. Teobaldi, D. Turban, V. Vitale, K. A. Wilkinson,          |
 |  C. Weber, J. C. Womack, N. Yeung and T. J. Zuehlsdorff       |
 |                                                               |
 |                                   Copyright (c) 2004-2021     |
 |                                                               |
 |  Please cite:                                                 |
 |  "The ONETEP linear-scaling density functional theory program"|
 |   J. Chem. Phys. 152(17) 174111 (2020)                        |
 |                                                               |
 |          in all publications arising from your use of ONETEP. |
 |                                                               |
 +---------------------------------------------------------------+
 |                                                               |
 |   ONETEP is based on developments described in the following  |
 |   publications:                                               |
 |                                                               |
 |  "Nonorthogonal generalized Wannier function pseudopotential  |
 |   plane-wave method".                                         |
 |   C.-K. Skylaris, A. A. Mostofi, P. D. Haynes, O. Dieguez,    |
 |   M. C. Payne.                                                |
 |   Phys. Rev. B 66 035119 (2002).                              |
 |                                                               |
 |  "Preconditioned iterative minimization for linear-scaling    |
 |   electronic structure calculations".                         |
 |   A. A. Mostofi, P. D. Haynes, C.-K. Skylaris, M. C. Payne.   |
 |   J. Chem. Phys. 119(17), pp.8842-8848 (2003).                |
 |                                                               |
 |  "Total-energy calculations on a real space grid with         |
 |   localized functions and a plane-wave basis".                |
 |   A. A. Mostofi, C.-K. Skylaris, P. D. Haynes, M. C. Payne.   |
 |   Comput. Phys. Commun. 147, pp.788-802 (2002).               |
 |                                                               |
 |  "Accurate kinetic energy evaluation in electronic structure  |
 |   calculations with localized functions on real space grids"  |
 |   C.-K. Skylaris, A. A. Mostofi, P. D. Haynes, C. J. Pickard, |
 |   M. C. Payne.                                                |
 |   Comput. Phys. Commun. 140, pp.315-322 (2001).               |
 |                                                               |
 |  "Accurate ionic forces and geometry optimization in linear-  |
 |   scaling density-functional theory with local orbitals"      |
 |   N. D. M. Hine, M. Robinson, P. D. Haynes, C.-K. Skylaris,   |
 |   M. C. Payne, and A. A. Mostofi.                             |
 |   Phys. Rev. B 83 195102 (2011).                              |
 |                                                               |
 +---------------------------------------------------------------+

Job started: 08-12-2021 18:36 (-0000)
 
Reading parameters from file "38/592nano.dat" ...... done

If your calculation crashes here, before "Checking processes and threads..."
is displayed, then your stack size is insufficient.
If so, use "ulimit -s unlimited" at runtime.
You can disable this check with "check_stack_size F".

Checking processes and threads...
   Determining the default number of threads...
      No default threads set at compilation time: defaulting to 1.
      OpenMP library call suggests 4 threads.
      Hybrid MPI-OpenMP compilation detected.
      Number of MPI processes > 1.
      OMP_NUM_THREADS environment variable present and
      its value matches the one obtained from the OpenMP library call.
      Using this value as default.
      Default threads: 4
      Default applies to threads_max and threads_num_fftboxes.
      Settings in the input file override this default.
   ... done

   Running with 160 MPI processes.
   There are 10 MPI processes running on the same node as the root process.
   Each MPI process is using: 
               1 threads for simulation cell FFTs.
               1 threads for parallel FFT box operations.
               4 threads for loops over batched FFT box operations.
               4 threads in other parallel regions.
... done

Basic input checks...
Resetting ngwf_cg_rotate to TRUE for EDFT calculations
... done

Reading geometry and species blocks from file "38/592nano.dat" ...    
  Number of PPD points along a3 set to 1.  This is 
  the default value, it may have been provided also in the input file.
... done
 Writing xyz coordinates to file "38/592nano.xyz" ... done


--------------------------------------------------------------------------------
---------------------------------- INPUT FILE ----------------------------------
--------------------------------------------------------------------------------

task : singlepoint                                                              
do_properties : true                                                            
dx_format T                                                                     
edft T                                                                          
edft_spin_fix 3                                                                 
output_detail VERBOSE                                                           
timings_level 3                                                                 
write_xyz T                                                                     
edft_update_scheme: pulay_mix                                                   
edft_ham_diis_size: 10                                                          
edft_trial_step: 0.1                                                            
xc_functional OPTPBE                                                            
cutoff_energy 830 eV                                                            
paw T                                                                           
geom_disp_tol 0.06 bohr                                                         
geom_energy_tol 6E-6 hartree                                                    
geom_force_tol 0.012 "ha/bohr"                                                  
geom_max_iter 25                                                                
EDFT_MAXIT 30                                                                   
pdos_max_l = 2                                                                  
dos_smear  0.1 eV                                                               
popn_calculate T                                                                
PDOS_PSEUDOATOMIC T                                                             
PDOS_REDUCE_SWS F                                                               
PDOS_CONSTRUCT_BASIS F                                                          
PDOS_LOWDIN T                                                                   
PDOS_ORTH_ATOM_BLOCKS F                                                         
PDOS_LCAO_OPTIMIZE F                                                            
pdos_optados_output T                                                           
homo_plot 0                                                                     
lumo_plot 0                                                                     
homo_dens_plot -1                                                               
lumo_dens_plot -1                                                               
%BLOCK SPECIES                                                                  
C C 6 4 9.0                                                                     
H H 1 1 9.0                                                                     
Li Li 3 5 9.0                                                                   
%ENDBLOCK SPECIES                                                               
%BLOCK SPECIES_POT                                                              
C "~/pp/paw/c_pbe_abinit.paw"                                                   
H "~/pp/paw/h_pbe_abinit.paw"                                                   
Li "~/pp/paw/li_pbe_abinit.paw"                                                 
%ENDBLOCK SPECIES_POT                                                           
%BLOCK SPECIES_ATOMIC_SET                                                       
C "SOLVE conf=2s2 2p2"                                                          
H "SOLVE conf=1s1"                                                              
Li "SOLVE conf=1s2 2s1 2p0"                                                     
%ENDBLOCK SPECIES_ATOMIC_SET                                                    
%BLOCK SPECIES_LDOS_GROUPS                                                      
C                                                                               
H                                                                               
Li                                                                              
%ENDBLOCK SPECIES_LDOS_GROUPS                                                   
%BLOCK LATTICE_CART                                                             
94.486315650000      0.000000000000       0.000000000000                        
0.000000000000       94.486315650000      0.000000000000                        
0.000000000000       0.000000000000       94.486315650000                       
%ENDBLOCK LATTICE_CART                                                          
%BLOCK POSITIONS_ABS                                                            
C 42.866122 41.466186 31.572549                                                 
C 38.791486 43.754281 31.726220                                                 
C 41.528925 39.141111 31.199491                                                 
C 45.573780 41.501780 31.562236                                                 
C 37.460199 41.415086 31.411723                                                 
C 37.420462 46.078090 31.852879                                                 
C 54.930277 48.610816 31.377748                                                 
C 54.892845 53.281374 31.343960                                                 
C 53.599731 46.265112 31.474284                                                 
C 38.650432 57.793014 31.955367                                                 
C 42.658158 60.166358 31.775616                                                 
C 37.336056 55.441656 32.039868                                                 
C 53.526111 55.607120 31.434890                                                 
C 45.354835 60.199825 31.725294                                                 
C 46.948717 39.192351 31.283589                                                 
C 41.488941 43.779763 31.794205                                                 
C 34.721500 46.049790 31.674748                                                 
C 50.959636 41.569844 31.379141                                                 
C 53.565354 50.935266 31.533364                                                 
C 34.683919 50.728189 31.851831                                                 
C 41.341964 57.816583 31.979640                                                 
C 38.827782 39.118259 31.075826                                                 
C 54.970176 43.938300 31.290987                                                 
C 49.584916 43.880795 31.632634                                                 
C 37.372714 50.754515 32.059078                                                 
C 49.451853 57.917493 31.716192                                                 
C 34.638741 55.419385 31.852101                                                 
C 57.616299 48.629456 31.001741                                                 
C 50.765836 60.264203 31.394484                                                 
C 57.575615 53.283757 30.950180                                                 
C 37.269877 60.116540 31.751586                                                 
C 54.835535 57.948178 31.099148                                                 
C 50.829906 55.591576 31.721055                                                 
C 46.751590 57.883170 31.874475                                                 
C 41.261695 62.468860 31.521347                                                 
C 46.665026 62.538784 31.389875                                                 
C 46.889863 43.849456 31.740681                                                 
C 50.911671 46.235427 31.681373                                                 
C 38.744036 48.426616 32.029993                                                 
C 38.700014 53.114809 32.112201                                                 
C 49.633407 39.230574 31.204882                                                 
C 33.368010 48.369368 31.658821                                                 
C 42.910578 36.822383 30.919490                                                 
C 53.655984 41.603625 31.257544                                                 
C 34.765431 41.385091 31.309838                                                 
C 33.343583 53.076174 31.629659                                                 
C 45.597445 36.845362 31.059049                                                 
C 33.401855 43.688977 31.440159                                                 
C 58.930319 50.961780 30.746171                                                 
C 53.454174 60.259235 31.063288                                                 
C 49.353162 62.564378 31.211641                                                 
C 38.573095 62.446783 31.519916                                                 
C 50.871246 50.911665 31.785079                                                 
C 42.722280 55.495714 32.090987                                                 
C 42.814429 46.137774 31.970753                                                 
C 57.660077 43.961897 31.029786                                                 
C 58.971314 46.291481 30.780631                                                 
C 33.271199 57.755974 31.699576                                                 
C 34.576497 60.092445 31.672127                                                 
C 58.879192 55.621633 30.556693                                                 
C 49.501940 53.242783 31.883218                                                 
C 45.427340 55.530977 32.040342                                                 
C 57.517779 57.942233 30.626294                                                 
C 49.544049 48.559775 31.849220                                                 
C 41.398390 53.144940 32.146626                                                 
C 42.559224 64.802501 31.117500                                                 
C 41.445817 48.461547 32.078722                                                 
C 45.513755 46.174461 31.934308                                                 
C 45.252512 64.840613 31.048631                                                 
C 37.472825 36.775040 30.558575                                                 
C 46.802657 53.210317 32.034711                                                 
C 42.772699 50.818169 32.131292                                                 
C 46.841615 48.527139 31.984710                                                 
C 41.568599 34.491854 30.411134                                                 
C 33.442299 39.028048 31.026486                                                 
C 51.001539 36.889993 30.843441                                                 
C 55.032285 39.265183 31.027663                                                 
C 30.666273 48.345512 31.282961                                                 
C 46.953853 34.519613 30.852080                                                 
C 30.668565 53.071484 31.128188                                                 
C 30.711585 43.661356 31.235973                                                 
C 45.470862 50.853406 32.081648                                                 
C 61.628890 50.976067 30.232430                                                 
C 38.894252 34.523843 30.120427                                                 
C 34.808245 36.780597 30.703197                                                 
C 37.164391 64.772991 31.246637                                                 
C 59.014425 41.617035 30.886504                                                 
C 54.761490 62.591391 30.519867                                                 
C 50.648558 64.903319 30.664841                                                 
C 61.652054 46.302037 30.312011                                                 
C 30.583505 57.731416 31.441778                                                 
C 61.571430 55.604001 30.027848                                                 
C 33.189436 62.413841 31.432764                                                 
C 41.122668 67.111796 30.722610                                                 
C 58.817017 60.281276 30.111883                                                 
C 46.562617 67.177400 30.542046                                                 
C 49.619369 34.585111 30.766782                                                 
C 29.411960 45.997635 31.119783                                                 
C 62.933596 48.640464 30.010141                                                 
C 53.671983 36.963522 30.840613                                                 
C 62.902732 53.302913 30.068808                                                 
C 57.679938 39.327166 30.947417                                                 
C 29.328277 50.710386 31.260547                                                 
C 42.984874 32.186578 30.409022                                                 
C 34.505616 64.699124 31.270566                                                 
C 38.484843 67.062191 30.914193                                                 
C 29.355712 55.389667 31.147141                                                 
C 30.742044 39.055105 31.030691                                                 
C 45.575876 32.208031 30.659567                                                 
C 29.428040 41.297865 31.104969                                                 
C 57.396047 62.567688 30.142780                                                 
C 53.377691 64.938878 30.614779                                                 
C 49.249114 67.151091 30.427267                                                 
H 37.877813 32.734506 29.776075                                                 
H 33.776581 34.980507 30.493148                                                 
C 62.975875 43.945776 30.395957                                                 
C 61.703173 41.685215 30.662503                                                 
C 62.793412 57.954291 29.464376                                                 
C 29.222208 60.059144 31.399766                                                 
C 30.486970 62.328994 31.347994                                                 
C 61.440454 60.225211 29.504346                                                 
C 42.493448 69.402753 30.203855                                                 
C 45.124555 69.421382 30.109006                                                 
H 64.969631 53.304835 29.778931                                                 
H 65.020027 48.658509 29.834264                                                 
H 50.634690 32.781803 30.390889                                                 
H 41.962259 30.381724 30.197028                                                 
H 29.728666 37.238855 30.917217                                                 
H 27.358320 45.957017 30.663026                                                 
H 37.407267 68.832156 30.698907                                                 
H 33.431516 66.471952 31.065535                                                 
H 58.739252 37.532317 30.856354                                                 
H 27.264972 55.372814 31.207775                                                 
H 46.644356 30.415697 30.654582                                                 
H 54.758908 35.213297 30.439064                                                 
H 27.343721 41.299827 31.057532                                                 
H 27.306515 50.721019 30.703058                                                 
H 58.365683 64.333460 29.569284                                                 
H 50.235233 68.915670 29.878500                                                 
H 65.056007 43.969243 30.254312                                                 
H 62.734397 39.872617 30.619213                                                 
H 54.265775 66.573678 29.647800                                                 
H 64.829422 57.929272 29.030724                                                 
H 29.432396 64.117595 31.170202                                                 
H 27.137960 59.988811 31.323465                                                 
H 41.417954 71.161300 29.907018                                                 
H 62.411975 62.017822 29.091038                                                 
H 46.142765 71.202843 29.744580                                                 
C 44.221365 39.070886 37.420635                                                 
C 36.085930 43.727582 37.471564                                                 
C 40.148500 41.410959 37.517462                                                 
C 41.523275 39.092913 37.424176                                                 
C 49.617312 39.094983 37.210188                                                 
C 37.460818 41.415281 37.336583                                                 
C 48.254794 41.420569 37.433688                                                 
C 53.671795 41.447704 37.164448                                                 
C 45.558932 41.409476 37.531345                                                 
C 52.302777 43.766674 37.342035                                                 
C 36.051954 48.392565 37.791287                                                 
C 37.418888 46.064296 37.727052                                                 
C 45.562804 36.731404 37.216306                                                 
C 36.014705 53.084270 37.923152                                                 
C 33.347620 48.371941 37.644381                                                 
C 53.638767 46.109980 37.339132                                                 
C 52.346945 39.106105 37.151222                                                 
C 33.313030 53.077945 37.851826                                                 
C 56.326775 46.125618 37.064393                                                 
C 33.391347 43.692099 37.310496                                                 
C 49.594509 43.767368 37.507853                                                 
C 37.368398 55.426290 37.930789                                                 
C 48.269186 36.736517 37.178956                                                 
C 41.492139 43.748774 37.695063                                                 
C 37.396485 50.741733 37.927451                                                 
C 36.014333 57.755461 37.767844                                                 
C 56.369008 41.441710 36.960138                                                 
C 56.310302 50.835720 37.107131                                                 
C 53.622218 50.811057 37.430396                                                 
C 53.613664 55.500634 37.455881                                                 
C 31.949251 50.723095 37.766630                                                 
C 45.477221 60.142607 37.733646                                                 
C 41.428928 57.771559 37.860710                                                 
C 57.686246 43.784769 36.852908                                                 
C 32.016167 46.007788 37.469005                                                 
C 52.250447 57.826584 37.516781                                                 
C 44.196013 43.749407 37.687059                                                 
C 48.173533 60.166731 37.671534                                                 
C 40.126208 46.076145 37.799136                                                 
C 40.059606 60.101074 37.660880                                                 
C 49.545419 57.818561 37.678556                                                 
C 52.291726 48.456709 37.514765                                                 
C 57.643763 48.496788 36.915484                                                 
C 40.083653 55.434536 37.957010                                                 
C 56.317736 55.513590 37.204550                                                 
C 52.269690 53.150375 37.566069                                                 
C 44.134193 57.790470 37.847723                                                 
C 40.186240 36.747284 37.297308                                                 
C 31.938570 55.419230 37.814255                                                 
C 44.107827 62.470148 37.596563                                                 
C 36.108423 39.084575 36.966524                                                 
C 33.301713 57.748752 37.652297                                                 
C 37.372475 60.083580 37.603471                                                 
C 57.643958 53.174561 36.956791                                                 
C 41.396497 62.432676 37.459172                                                 
C 48.245599 46.096896 37.670800                                                 
C 40.094575 50.754047 37.958043                                                 
C 48.210450 55.475754 37.788323                                                 
C 44.220048 34.359306 37.041201                                                 
C 53.745923 36.746861 37.100310                                                 
C 53.589665 60.187995 37.351144                                                 
C 49.591771 48.449043 37.680578                                                 
C 49.500869 62.518544 37.567780                                                 
C 41.448399 53.100955 37.973109                                                 
C 45.497645 55.459779 37.883167                                                 
C 49.572084 53.137830 37.735902                                                 
C 45.536595 46.091147 37.753259                                                 
C 41.468799 48.418987 37.893646                                                 
C 32.043311 41.345628 36.955155                                                 
C 37.475580 36.763258 37.221731                                                 
C 49.639301 34.346783 37.162124                                                 
C 41.525785 34.416563 37.219103                                                 
C 57.661928 57.845566 37.149166                                                 
C 57.764877 39.097455 36.770896                                                 
C 33.457254 39.071067 36.817620                                                 
C 45.438404 64.816821 37.546315                                                 
C 44.154497 53.112064 37.927264                                                 
C 48.229048 50.784608 37.782427                                                 
C 29.198553 50.701880 37.886438                                                 
C 44.173927 48.428115 37.856591                                                 
C 60.360230 48.497762 36.647232                                                 
C 52.208992 62.535144 37.427348                                                 
C 45.523074 50.774642 37.873459                                                 
C 60.400335 43.772245 36.593093                                                 
C 29.266828 45.957488 37.541945                                                 
C 56.301971 60.194601 37.266232                                                 
C 56.408207 36.774680 36.932765                                                 
C 29.187177 55.437032 37.759155                                                 
C 48.145217 64.847620 37.594377                                                 
C 60.312820 53.196908 36.477909                                                 
C 52.370128 34.419335 37.483399                                                 
C 36.008308 62.409283 37.262176                                                 
C 31.931826 60.090153 37.365500                                                 
C 40.030619 64.763162 37.136676                                                 
C 45.594728 32.085830 36.743941                                                 
C 27.813962 53.034863 38.000789                                                 
C 61.672557 46.146516 36.653741                                                 
C 27.928927 48.324366 37.916798                                                 
C 61.629433 50.865441 36.402864                                                 
C 48.264363 32.076219 36.857545                                                 
C 29.360704 41.362605 36.910200                                                 
C 33.313254 62.415705 37.381546                                                 
C 60.429569 39.148856 36.532604                                                 
C 37.360730 64.698649 37.069646                                                 
C 60.405477 57.865750 36.955836                                                 
H 36.445075 34.974064 36.838736                                                 
H 40.469527 32.608426 37.109855                                                 
C 61.731514 41.458225 36.404703                                                 
C 44.035765 67.189647 37.529132                                                 
H 32.448477 37.284921 36.437794                                                 
C 61.665237 55.518965 36.515479                                                 
C 28.006963 43.612494 37.319546                                                 
C 41.358116 67.092714 37.249061                                                 
H 57.439274 34.993018 36.555418                                                 
C 27.921139 57.765817 37.479945                                                 
C 29.252867 60.051489 37.316096                                                 
H 53.420453 32.600096 37.440608                                                 
C 53.569784 64.923185 37.599630                                                 
H 44.555424 30.302014 36.482769                                                 
H 25.763925 53.017427 37.570458                                                 
C 57.703661 62.588917 37.331327                                                 
C 49.498962 67.253629 37.689029                                                 
H 63.749342 46.051703 36.450624                                                 
H 28.340398 39.573209 36.637450                                                 
H 25.861122 48.311278 38.202764                                                 
H 63.683336 50.958299 35.932397                                                 
H 49.295197 30.270146 36.687570                                                 
H 61.482729 37.354211 36.426816                                                 
H 32.294317 64.120091 36.719687                                                 
H 36.335482 66.449097 36.552691                                                 
H 63.806272 41.503627 36.202354                                                 
H 63.706816 55.518049 36.018850                                                 
H 25.921340 43.588942 37.401208                                                 
H 25.846121 57.758845 37.246817                                                 
C 61.719076 60.222410 36.905823                                                 
H 40.281011 68.876798 37.170726                                                 
C 45.412039 69.518073 37.494511                                                 
H 28.225547 61.857385 37.079979                                                 
C 52.207788 67.209841 37.802175                                                 
C 56.273978 64.884674 37.684918                                                 
C 60.364425 62.562665 37.127172                                                 
C 48.102297 69.529999 37.625682                                                 
H 63.805764 60.214332 36.913028                                                 
H 44.356959 71.311441 37.592976                                                 
H 53.242468 68.990309 38.144706                                                 
H 57.306626 66.662892 38.042668                                                 
H 61.419041 64.357334 37.178859                                                 
H 49.120271 71.343491 37.724437                                                 
H 28.583685 37.970206 44.313020                                                 
H 40.386106 30.130712 44.656197                                                 
H 32.513563 35.277471 43.933629                                                 
H 36.473197 32.678432 44.484728                                                 
H 45.104326 29.848668 44.532414                                                 
H 26.486620 42.251882 44.205188                                                 
C 41.544664 31.855020 44.496111                                                 
C 29.761539 39.680357 44.138389                                                 
H 61.881100 37.975137 43.439779                                                 
C 33.680413 37.010336 44.039831                                                 
C 37.618752 34.422014 44.378365                                                 
C 44.156710 31.697409 44.407328                                                 
H 49.284793 31.931581 44.493050                                                 
H 64.548227 41.955295 43.239483                                                 
C 28.565234 42.114455 44.151097                                                 
H 65.523139 56.115958 43.735685                                                 
H 26.838588 47.011059 44.148127                                                 
H 27.823869 60.913587 45.279927                                                 
H 53.431390 34.007986 44.529102                                                 
H 57.619140 36.046501 44.527288                                                 
H 30.381101 64.875846 44.799510                                                 
H 27.215481 51.639308 44.808407                                                 
H 65.251877 51.371065 43.410826                                                 
H 43.139161 71.171225 44.335488                                                 
H 63.416494 60.351713 44.167480                                                 
H 27.576508 56.226012 45.435547                                                 
H 64.886002 46.693275 43.216366                                                 
C 32.421191 39.434981 44.045791                                                 
C 40.311394 34.232304 44.477229                                                 
H 47.922917 70.835997 44.410537                                                 
C 36.397288 36.792097 44.195501                                                 
H 38.862076 69.109428 44.124465                                                 
C 60.966878 39.847123 43.487652                                                 
C 62.474686 42.100732 43.369472                                                 
H 34.619643 67.070367 44.384503                                                 
C 48.355955 33.784104 44.235450                                                 
C 63.439768 56.232813 43.780453                                                 
C 28.917679 46.835163 44.339482                                                 
H 59.472881 62.974557 44.456195                                                 
C 29.877507 60.797192 44.976795                                                 
C 45.677664 33.913581 44.295244                                                 
H 51.806039 68.147378 44.299548                                                 
H 55.599842 65.523358 44.619887                                                 
C 30.031720 44.373096 44.106616                                                 
C 31.330048 63.018577 44.728752                                                 
C 52.533506 35.857918 44.113619                                                 
C 62.256896 58.621618 44.027484                                                 
C 56.720878 37.858003 43.958067                                                 
C 44.047229 69.296973 44.366250                                                 
C 29.308577 51.492060 44.674588                                                 
C 63.166595 51.523793 43.423346                                                 
C 29.607891 56.119874 44.961334                                                 
C 62.810764 46.832614 43.313613                                                 
C 46.751402 69.114216 44.474854                                                 
C 49.844874 35.992082 44.126737                                                 
C 58.267149 40.020050 43.626946                                                 
C 39.778653 67.239058 44.151922                                                 
C 54.046941 38.059936 43.987274                                                 
C 30.439128 49.073837 44.455369                                                 
C 61.362518 44.525884 43.390669                                                 
C 35.533465 65.193032 44.217992                                                 
C 41.801608 36.511114 44.161296                                                 
C 61.997043 53.999889 43.637445                                                 
C 33.968761 41.720707 43.939013                                                 
C 31.033678 58.383302 44.834256                                                 
C 45.386657 50.408488 43.586168                                                 
C 30.786119 53.734907 44.813382                                                 
C 37.896102 39.097846 43.992127                                                 
C 61.683795 49.265266 43.385479                                                 
C 46.906699 52.647899 43.616937                                                 
C 58.333875 61.223788 44.316858                                                 
C 42.687834 50.580536 43.655505                                                 
C 46.581480 47.982198 43.554390                                                 
C 44.484064 36.352806 44.069784                                                 
C 33.986140 62.920393 44.369205                                                 
C 50.617073 66.430967 44.305796                                                 
C 42.508855 67.129912 44.256028                                                 
C 32.785222 44.175877 44.030976                                                 
C 54.436983 63.793849 44.470995                                                 
C 59.582539 58.818382 44.113787                                                 
C 45.712901 55.067607 43.689139                                                 
C 49.612120 52.485494 43.591743                                                 
C 41.189687 48.317500 43.664350                                                 
C 45.082007 45.723064 43.548137                                                 
C 38.238747 65.040193 44.147544                                                 
C 41.505531 53.008579 43.747903                                                 
C 49.287769 47.815927 43.595995                                                 
C 47.954118 66.684514 44.387020                                                 
C 40.601979 38.937824 43.931309                                                 
C 36.673948 41.528262 43.854973                                                 
C 42.377612 45.881427 43.599240                                                 
C 43.011252 55.259133 43.755246                                                 
C 50.813105 50.059470 43.559802                                                 
C 48.659321 38.455792 43.867093                                                 
C 55.650029 61.407773 44.396898                                                 
C 33.144624 48.874939 44.248853                                                 
C 52.850981 40.515207 43.722800                                                 
C 57.057432 42.500254 43.554340                                                 
C 51.775676 64.025609 44.136274                                                 
C 58.588377 44.754508 43.484122                                                 
C 45.965919 38.608665 43.818667                                                 
C 46.279531 43.297171 43.560212                                                 
C 38.497958 48.493298 43.788206                                                 
C 34.298769 46.422044 44.017443                                                 
C 33.468938 53.541580 44.416104                                                 
C 50.476541 45.374504 43.626783                                                 
C 38.813053 53.187140 43.880602                                                 
C 51.127662 54.717958 43.671507                                                 
C 40.878351 43.627224 43.651240                                                 
C 50.163935 40.702458 43.707210                                                 
C 47.222710 57.305703 43.739145                                                 
C 33.743416 58.211536 44.467792                                                 
C 59.244166 54.155621 43.680521                                                 
C 42.089989 41.192721 43.691719                                                 
C 38.177169 43.793442 43.744042                                                 
C 48.964807 43.139307 43.622395                                                 
C 44.778148 41.030902 43.642765                                                 
C 58.936328 49.478208 43.466299                                                 
C 37.324174 50.938430 43.926367                                                 
C 35.227758 60.464499 44.299022                                                 
C 36.994416 46.233648 43.825241                                                 
C 34.636893 51.124339 44.183247                                                 
C 54.367175 42.734480 43.620220                                                 
C 53.512394 49.854955 43.542372                                                 
C 49.927155 57.125044 43.765014                                                 
C 43.693517 64.611024 44.220122                                                 
C 41.819770 57.680919 43.869920                                                 
C 58.042791 56.561779 43.890740                                                 
C 34.942567 55.794148 44.285428                                                 
C 53.176367 45.177507 43.606555                                                 
C 57.405813 47.200632 43.500726                                                 
C 39.427346 62.557210 44.112156                                                 
C 37.623341 55.623653 44.019333                                                 
C 57.740100 51.920523 43.558201                                                 
C 54.684099 47.415756 43.553941                                                 
C 46.409932 64.405133 44.211320                                                 
C 53.840527 54.521952 43.681935                                                 
C 55.039378 52.108467 43.574121                                                 
C 39.107731 57.871208 43.987358                                                 
C 46.017282 59.727755 43.830032                                                 
C 37.921453 60.293182 44.102047                                                 
C 54.137911 59.168123 44.064413                                                 
C 43.325602 59.916986 43.921509                                                 
C 50.241364 61.765528 44.009797                                                 
C 42.162017 62.376222 44.095452                                                 
C 51.442784 59.359809 43.940885                                                 
C 55.350484 56.753220 43.869964                                                 
C 47.544989 61.966816 43.991688                                                 
H 43.859972 29.876839 50.307141                                                 
H 27.979223 39.544512 51.476756                                                 
H 48.574345 29.736011 50.243234                                                 
H 60.814327 36.414712 51.020975                                                 
H 63.229053 40.450428 51.506153                                                 
H 25.713823 43.678327 51.704710                                                 
H 28.456467 61.737215 51.369434                                                 
H 25.983995 57.722014 51.232220                                                 
H 36.065622 34.745244 51.093308                                                 
H 39.924376 32.321391 50.386251                                                 
H 32.029046 37.137773 51.371914                                                 
H 63.546286 49.782331 51.121858                                                 
H 36.676271 66.103751 52.043726                                                 
H 63.774835 59.031112 51.966699                                                 
H 44.835842 70.563064 52.613077                                                 
H 63.417863 45.142310 51.108209                                                 
H 32.574506 63.869049 51.892700                                                 
H 52.649939 31.906237 50.172926                                                 
H 56.727475 34.170410 50.357315                                                 
H 63.648051 54.395617 51.533209                                                 
H 61.513383 63.178854 52.296467                                                 
H 40.729344 68.372666 52.079796                                                 
H 49.567655 70.502392 52.463991                                                 
H 25.911610 53.089838 51.495714                                                 
H 25.874569 48.416555 52.110229                                                 
C 44.966315 31.629309 50.173011                                                 
C 47.546678 31.543335 50.129922                                                 
C 29.058614 41.324941 51.353543                                                 
C 59.831359 38.236956 50.784092                                                 
C 27.784849 43.640126 51.465644                                                 
C 61.182980 40.484579 51.076615                                                 
C 28.061704 57.692828 51.068041                                                 
C 29.425953 59.907351 51.138393                                                 
H 57.552973 65.642199 52.160022                                                 
H 53.596803 68.111382 52.081191                                                 
C 41.004860 34.093451 50.218790                                                 
C 37.063242 36.515971 50.566585                                                 
C 33.058733 38.886023 50.840832                                                 
C 61.719631 59.137721 51.644292                                                 
C 45.844459 68.800168 52.146330                                                 
C 60.462139 61.447552 51.820214                                                 
C 51.647283 33.746318 50.040728                                                 
C 48.486927 68.771578 52.039772                                                 
C 55.734458 35.990633 50.185195                                                 
C 61.351697 45.192846 50.790432                                                 
C 61.533132 49.859244 50.547163                                                 
C 33.552920 62.112681 51.301951                                                 
C 37.631655 64.381413 51.330147                                                 
C 27.895592 48.359877 51.603622                                                 
C 27.973414 53.026091 51.181792                                                 
C 61.637765 54.494579 50.958609                                                 
C 41.723632 66.593245 51.633438                                                 
C 43.633096 33.982714 50.073594                                                 
C 49.006709 33.814623 49.986328                                                 
C 31.722268 41.208005 50.947188                                                 
C 57.151348 38.226924 50.314536                                                 
C 29.117844 45.990503 51.300579                                                 
C 59.975818 42.882106 50.724493                                                 
C 29.308338 55.308903 50.916842                                                 
C 39.710573 36.405512 50.208524                                                 
C 32.110258 59.886199 50.993280                                                 
C 35.728118 38.819056 50.588693                                                 
C 53.075405 36.007295 50.027002                                                 
C 56.484481 63.918273 51.679698                                                 
C 52.523436 66.380298 51.642544                                                 
C 29.227208 50.680413 51.245932                                                 
C 45.369115 50.323613 49.365354                                                 
C 60.391765 56.871919 51.064512                                                 
C 60.139727 47.547074 50.607051                                                 
C 44.407878 66.579437 51.618106                                                 
C 36.211522 62.094816 51.164061                                                 
C 60.270299 52.232948 50.645552                                                 
C 40.320672 64.357301 51.342765                                                 
C 57.786935 61.614220 51.451862                                                 
C 49.846845 66.482809 51.569235                                                 
C 44.078004 52.689007 49.461864                                                 
C 48.075196 50.259437 49.361215                                                 
C 43.959635 48.015532 49.374134                                                 
C 53.844838 64.050092 51.431223                                                 
C 45.496844 54.988096 49.554213                                                 
C 49.499073 52.555290 49.446706                                                 
C 45.033201 36.286982 49.850564                                                 
C 41.373489 52.744637 49.567591                                                 
C 49.357033 47.882112 49.376008                                                 
C 47.702444 36.201828 49.821509                                                 
C 33.095047 43.548660 50.578631                                                 
C 41.260909 48.072630 49.476803                                                 
C 45.254372 45.640244 49.353826                                                 
C 31.807544 45.910031 50.743233                                                 
C 55.879945 40.633632 50.049526                                                 
C 57.282105 42.933700 50.201628                                                 
C 31.999870 55.258801 50.593688                                                 
C 33.394897 57.544559 50.595440                                                 
C 48.205937 54.919953 49.554281                                                 
C 39.965849 50.438244 49.582839                                                 
C 47.951719 45.569797 49.351917                                                 
C 51.786029 38.412827 49.833424                                                 
C 41.081976 38.722664 49.880036                                                 
C 37.094636 41.149237 50.106759                                                 
C 57.701844 56.980861 50.634633                                                 
C 31.911706 50.599898 50.651082                                                 
C 45.728152 64.251491 51.012734                                                 
C 57.430483 47.634705 50.130028                                                 
C 56.408963 59.333159 50.822660                                                 
C 37.504448 59.766116 50.568640                                                 
C 48.420496 64.190531 51.018392                                                 
C 57.570595 52.328633 50.171314                                                 
C 41.628997 62.011772 50.715642                                                 
C 40.074786 55.106416 49.780639                                                 
C 44.194227 57.342468 49.795763                                                 
C 52.205502 52.489991 49.570047                                                 
C 52.058189 47.799179 49.520119                                                 
C 39.848458 45.759470 49.582141                                                 
C 49.102665 38.499680 49.699377                                                 
C 43.846689 43.338653 49.446114                                                 
C 43.748164 38.660376 49.721207                                                 
C 35.781889 43.495156 50.105206                                                 
C 53.193766 40.705361 49.762216                                                 
C 33.194316 48.235571 50.423391                                                 
C 33.287358 52.896633 50.370457                                                 
C 39.765230 41.086868 49.815077                                                 
C 41.484728 57.405139 49.913606                                                 
C 56.026186 45.332842 49.926586                                                 
C 53.478916 50.106034 49.611106                                                 
C 41.148574 43.397796 49.569601                                                 
C 36.095975 57.497155 50.350896                                                 
C 52.425032 61.754695 50.826209                                                 
C 37.262664 50.486746 49.813757                                                 
C 56.176242 50.024971 49.902477                                                 
C 49.239011 43.188496 49.424532                                                 
C 40.201121 59.742392 50.350416                                                 
C 49.633739 57.201428 49.823505                                                 
C 56.308953 54.692197 50.143759                                                 
C 44.324120 61.966107 50.542085                                                 
C 45.141130 40.971007 49.516967                                                 
C 37.156381 45.806628 49.827483                                                 
C 37.380739 55.148275 49.995576                                                 
C 53.336991 45.408059 49.604822                                                 
C 47.826765 40.889669 49.507933                                                 
C 35.858068 48.179037 49.967454                                                 
C 51.933487 43.097386 49.545561                                                 
C 35.974615 52.843614 50.015354                                                 
C 45.618910 59.617233 50.088733                                                 
C 53.720687 59.426412 50.479318                                                 
C 49.723916 61.826437 50.604227                                                 
C 53.622056 54.787926 49.831723                                                 
C 48.331311 59.537839 50.141467                                                 
C 52.336004 57.148377 49.978943                                                 
Li 59.721387 41.387673 40.010599                                                
Li 31.775809 60.568008 41.268623                                                
Li 30.650228 41.973232 40.752685                                                
Li 46.511293 67.519433 40.817669                                                
Li 59.760949 60.170990 40.432908                                                
Li 54.565725 62.394149 40.705383                                                
Li 41.134641 64.907433 40.891084                                                
Li 39.508171 35.335190 40.798804                                                
Li 28.919787 54.229216 41.461352                                                
Li 30.769424 48.078825 40.802528                                                
Li 50.936429 37.310281 40.502509                                                
Li 62.654695 53.140524 39.760339                                                
Li 62.625825 52.525069 47.410333                                                
Li 59.935228 46.984895 40.187004                                                
Li 35.061153 38.244103 40.576641                                                
Li 46.649916 33.682945 40.398590                                                
Li 55.479965 35.599765 40.788863                                                
Li 34.914418 64.851634 40.316947                                                
Li 56.362925 64.449922 33.663360                                                
Li 60.181206 47.041155 46.778787                                                
Li 51.525726 67.111996 33.850066                                                
Li 51.693813 64.709121 47.958445                                                
Li 34.876089 64.367974 48.147678                                                
Li 40.872015 64.929243 47.530077                                                
Li 59.751643 59.816253 48.004374                                                
Li 46.597951 67.698382 48.297933                                                
Li 28.288522 49.002105 47.770971                                                
Li 59.906700 40.721138 47.235785                                                
Li 34.176816 36.385937 47.859105                                                
Li 27.794412 48.071059 34.035548                                                
Li 43.859359 67.942996 33.774782                                                
Li 39.461820 35.388958 33.814257                                                
Li 61.382642 58.388247 33.188393                                                
Li 29.867217 43.190877 47.866882                                                
Li 52.375391 34.417866 33.583735                                                
Li 28.905023 53.366156 34.386538                                                
Li 62.924236 48.274190 33.717196                                                
Li 55.491120 36.744120 47.242440                                                
%ENDBLOCK POSITIONS_ABS                                                         

--------------------------------------------------------------------------------
-------------------------------- END INPUT FILE --------------------------------
--------------------------------------------------------------------------------


 
<<<<<<<<<<<<<<<<<<<<<<<<<<<<<<<<< Full system >>>>>>>>>>>>>>>>>>>>>>>>>>>>>>>>>>
<<<<<<<<<<<<<<<<<<<<<<<<<<< PAW Dataset information >>>>>>>>>>>>>>>>>>>>>>>>>>>
File: ~/pp/paw/c_pbe_abinit.paw; rc = 1.25 bohr; shape type =  3; rshape = 1.25 bohr;
  Atomic number:  6;  ionic charge:  4.000000
    Partial Wave 1: l = 0
    Partial Wave 2: l = 0
    Partial Wave 3: l = 1
    Partial Wave 4: l = 1
  Core charge supplied for Nonlinear Core Corrections
File: ~/pp/paw/h_pbe_abinit.paw; rc = 0.90 bohr; shape type =  3; rshape = 0.90 bohr;
  Atomic number:  1;  ionic charge:  1.000000
    Partial Wave 1: l = 0
    Partial Wave 2: l = 0
File: ~/pp/paw/li_pbe_abinit.paw; rc = 1.42 bohr; shape type =  3; rshape = 1.42 bohr;
  Atomic number:  3;  ionic charge:  3.000000
    Partial Wave 1: l = 0
    Partial Wave 2: l = 0
    Partial Wave 3: l = 0
    Partial Wave 4: l = 1
    Partial Wave 5: l = 1
<<<<<<<<<<<<<<<<<<<<<<<<<<<<<<<<<<<<<<< >>>>>>>>>>>>>>>>>>>>>>>>>>>>>>>>>>>>>>>

-------------------------- Atom counting information ---------------------------
Symbol    Natoms    Nngwfs    Nprojs
  C        484      1936      3872
  H        108       108       216
  Li        38       190       342
.......   ......    ......    ......
Totals:    630      2234      4430
--------------------------------------------------------------------------------

=============================== PSINC grid sizes ===============================
                      Simulation cell:  189 x 189 x 189
                              FFT-box:  117 x 117 x 117
                                  PPD:    7 x   7 x   1
Grid space d1=  0.499927596032a0 (KE cutoff=  30.39413Eh = 827.06648eV)
Grid space d2=  0.499927596032a0 (KE cutoff=  30.39413Eh = 827.06648eV)
Grid space d3=  0.499927596032a0 (KE cutoff=  30.39413Eh = 827.06648eV)
================================================================================
  
WARNING in cell_grid_distribute:
Average of less than one 23-slab per proc, so workload cannot be
equally balanced between procs.

********************* Fourier parallelisation information **********************
       Coarse grid (whole simulation cell) dimensions:    189   189   189
          Real-space ('12') slabs/proc (min max mean):      1     2     1
         Recip-space ('23') slabs/proc (min max mean):      0     1     0
********************************************************************************

********************* Fourier parallelisation information **********************
       Double grid (whole simulation cell) dimensions:    378   378   378
          Real-space ('12') slabs/proc (min max mean):      2     3     2
         Recip-space ('23') slabs/proc (min max mean):      1     2     1
********************************************************************************

Atom SCF Calculation for C  : Z (AE atom) =   6 : Z (PS atom) =   4
Config String: 2s2 2p2
Orbitals (num,occ):  2     2.00 2.00
Orbitals   (num,l):  2        0    1
Real-space Grid (nr,dr,rmax): 1377    0.0065406977    9.0000000000
Spherical Bessel Basis (nsws,lmax,cutoff):   37    2  183.0099912382
Confining potential (l,width,scale):  0    3.0000000000  100.0000000000
Confining potential (l,width,scale):  1    3.0000000000  100.0000000000
  1         -5.4795186097   -1.3252230651    4.5135247139   -1.6370402178
  2         -5.4480873667   -1.4027986130    4.4305957006   -1.6109824140
  3         -5.4553175168   -1.4212842775    4.4102621601   -1.6059044058
  4         -5.4627851864   -1.4247099971    4.4065125496   -1.6052912254
  5         -5.4662317525   -1.4266823431    4.4043718731   -1.6049357348
  6         -5.4679531179   -1.4277361345    4.4032352159   -1.6047498153
  7         -5.4688370531   -1.4282876632    4.4026436340   -1.6046546171
  8         -5.4692962224   -1.4285743132    4.4023378281   -1.6046060967
  9         -5.4695360875   -1.4287229388    4.4021801230   -1.6045813828
 10         -5.4696617783   -1.4287999625    4.4020988354   -1.6045687883
 11         -5.4697277645   -1.4288398966    4.4020569195   -1.6045623641
 12         -5.4697624500   -1.4288606199    4.4020352864   -1.6045590836
 13         -5.4697806994   -1.4288713865    4.4020241086   -1.6045574064
 14         -5.4697903086   -1.4288769875    4.4020183254   -1.6045565478
 15         -5.4697953717   -1.4288799052    4.4020153292   -1.6045561077
 16         -5.4697980412   -1.4288814272    4.4020137746   -1.6045558818
 17         -5.4697994496   -1.4288822223    4.4020129668   -1.6045557657
 18         -5.4698001930   -1.4288826382    4.4020125465   -1.6045557059
 19         -5.4698005858   -1.4288828561    4.4020123274   -1.6045556751
 20         -5.4698007933   -1.4288829704    4.4020122131   -1.6045556592
 21         -5.4698009031   -1.4288830304    4.4020121533   -1.6045556509
 22         -5.4698009612   -1.4288830620    4.4020121220   -1.6045556467
Atom SCF converged after  22 iterations to a total energy of     -5.46980096

Atom SCF Calculation for H  : Z (AE atom) =   1 : Z (PS atom) =   1
Config String: 1s1
Orbitals (num,occ):  1     1.00
Orbitals   (num,l):  1        0
Real-space Grid (nr,dr,rmax): 1377    0.0065406977    9.0000000000
Spherical Bessel Basis (nsws,lmax,cutoff):   37    1  183.0099912382
Confining potential (l,width,scale):  0    3.0000000000  100.0000000000
  1         -0.3687944832   -0.2607687933    0.2820952946   -0.2613406499
  2         -0.4328656062   -0.2590521405    0.2895573663   -0.2701762133
  3         -0.4633856573   -0.2560091938    0.2934204754   -0.2757429988
  4         -0.4750266404   -0.2549676794    0.2946557510   -0.2779015032
  5         -0.4793045155   -0.2546870695    0.2949704774   -0.2786577123
  6         -0.4808919118   -0.2546234645    0.2950332622   -0.2789201171
  7         -0.4814942533   -0.2546130669    0.2950388368   -0.2790132353
  8         -0.4817280090   -0.2546133926    0.2950352123   -0.2790473458
  9         -0.4818204053   -0.2546148712    0.2950319888   -0.2790602287
 10         -0.4818574273   -0.2546158825    0.2950301416   -0.2790652181
 11         -0.4818724050   -0.2546164247    0.2950292178   -0.2790671871
 12         -0.4818785049   -0.2546166894    0.2950287833   -0.2790679748
 13         -0.4818810009   -0.2546168128    0.2950285855   -0.2790682928
 14         -0.4818820255   -0.2546168689    0.2950284970   -0.2790684221
 15         -0.4818824471   -0.2546168940    0.2950284580   -0.2790684748
 16         -0.4818826210   -0.2546169051    0.2950284408   -0.2790684964
 17         -0.4818826928   -0.2546169100    0.2950284333   -0.2790685053
Atom SCF converged after  17 iterations to a total energy of     -0.48188269

Atom SCF Calculation for Li : Z (AE atom) =   3 : Z (PS atom) =   3
Config String: 1s2 2s1 2p0
Orbitals (num,occ):  3     2.00 1.00 0.00
Orbitals   (num,l):  3        0    0    1
Real-space Grid (nr,dr,rmax): 1377    0.0065406977    9.0000000000
Spherical Bessel Basis (nsws,lmax,cutoff):   37    2  183.0099912382
Confining potential (l,width,scale):  0    3.0000000000  100.0000000000
Confining potential (l,width,scale):  1    3.0000000000  100.0000000000
  1         -6.1314629607   -4.7499359229    2.5388576516   -1.0480231927
  2         -7.0450508208   -4.1702030791    2.9795337774   -1.2623862962
  3         -7.3518474013   -3.9564527259    3.2037296734   -1.3880788964
  4         -7.4613386962   -3.8947565558    3.2914990517   -1.4402825036
  5         -7.5001516047   -3.8789668192    3.3221434609   -1.4602864917
  6         -7.5136113510   -3.8755528126    3.3322769691   -1.4678164580
  7         -7.5181182589   -3.8751724459    3.3354399675   -1.4706394447
  8         -7.5195538340   -3.8753832694    3.3363346353   -1.4716958846
  9         -7.5199777516   -3.8756112412    3.3365363545   -1.4720903919
 10         -7.5200869011   -3.8757624244    3.3365501247   -1.4722372325
 11         -7.5201065703   -3.8758489541    3.3365264569   -1.4722916218
 12         -7.5201049812   -3.8758952022    3.3365040630   -1.4723116262
 13         -7.5201006323   -3.8759190019    3.3364892955   -1.4723189110
 14         -7.5200980758   -3.8759285770    3.3364824548   -1.4723210036
 15         -7.5200963811   -3.8759342877    3.3364781194   -1.4723220111
 16         -7.5200953120   -3.8759376792    3.3364754203   -1.4723224913
 17         -7.5200946593   -3.8759396866    3.3364737619   -1.4723227171
 18         -7.5200942701   -3.8759408718    3.3364727530   -1.4723228213
 19         -7.5200940419   -3.8759415700    3.3364721439   -1.4723228682
 20         -7.5200939099   -3.8759419808    3.3364717784   -1.4723228886
 21         -7.5200938343   -3.8759422222    3.3364715600   -1.4723228969
Atom SCF converged after  21 iterations to a total energy of     -7.52009383

Determining parallel strategy ...
... using space-filling curve
... NGWF load balancing: max     16;  min     12;  average     14
... Projector load balancing: max     32;  min     24;  average     28
... done
Calculating Ewald energy ...
              Ewald: real-space energy =   37464.708637
        Ewald: reciprocal-space energy =   36732.033429
         Ewald: (sum_charge)**2 Energy =    2874.686264
         Ewald: (sum_charge**2) Energy =     253.912337
                          Ewald Energy =   71068.143464
Basis initialisation ...... NGWF spheres initialised
... Projector spheres initialised
... NGWF tight boxes initialised
... Projector tight boxes initialised
... Tight-boxes gathered
... NGWF basis size (local,global):     282750  45091678
... PAW projector initialisation
... done

============================= Charge Augmentation ==============================
                           Aug box size:   13 x  13 x  13
================================================================================

========================== Sparse matrix information ===========================
                        Overlap matrix filling:  37.61%
                        Density kernel filling: 100.00%
              NGWF-Proj overlap matrix filling:  10.53%
                    Aug Overlap matrix filling:  42.00%
                    Hamiltonian matrix filling:  42.00%
                  NGWF diagonal matrix filling:   0.18%
                             KS matrix filling: 100.00% 
                           KSKS matrix filling: 100.00% 
================================================================================

Sparse matrix initialisation ... done
NGWF initialisation ...... done
============ Calculation of NGWF S^-1 using Hotelling algorithm ================ 
         Iteration  |  Frobenius norm and Maximum abs value    (of I-S*S_n^-1)   
               1       0.47009911E+02     0.99723514E+00
               2       0.46766200E+02     0.99448414E+00
               3       0.46310380E+02     0.98902260E+00
               4       0.45506442E+02     0.97825404E+00
               5       0.44217927E+02     0.95728535E+00
               6       0.42397767E+02     0.91732535E+00
               7       0.40097222E+02     0.84394810E+00
               8       0.37347871E+02     0.79907083E+00
               9       0.34261160E+02     0.78284486E+00
              10       0.31160429E+02     0.76072582E+00
              11       0.28082177E+02     0.74603234E+00
              12       0.24451909E+02     0.72488760E+00
              13       0.19704153E+02     0.68896363E+00
              14       0.13824422E+02     0.64613500E+00
              15       0.79423678E+01     0.57672735E+00
              16       0.39417380E+01     0.46780443E+00
              17       0.20842390E+01     0.36393394E+00
              18       0.10776409E+01     0.28460163E+00
              19       0.52672107E+00     0.18730704E+00
              20       0.23129768E+00     0.88117842E-01
              21       0.53024033E-01     0.20251597E-01
              22       0.28114357E-02     0.10737817E-02
              23       0.79041709E-05     0.30188681E-05
              24       0.62471339E-10     0.23860025E-10
              25       0.58047489E-13     0.97699626E-14
================================================================================
Calculating core density ...
================================= Core Density =================================
               Core den box size:   21 x  21 x  21
================================================================================
 ... done
Up spin density kernel initialisation ...... done
Down spin density kernel initialisation ...... done

Writing density kernel to file "38/592nano.dkn" ... done

>>> Optimising kernel for current NGWFs:

--------------------------- Ensemble-DFT optimisation --------------------------
Running ScaLAPACK on  160 processor(s).

--------------------------------------------------------------------------------
  Iter                              Commutator    Free_energy(A=E-TS)     DeltaA
#    0                          0.001311682250   -3110.81098205796025  -3.11E+03

Step                       =       0.381966011250
Energy (E)                 =   -3110.787221630395
Entropy (-TS)              =      -0.023760427565
Free energy (A=E-TS)       =   -3110.810982057960
Est. 0K Energy 0.5*(E+A)   =   -3110.799101844178
Residual Non-orthogonality =       0.000000000000
Residual N_electrons       =       0.000000000000

Spin          Integrated_Ne            Fermi_level     Delta_Fermi_level
   1      1079.000000000000        -0.229522829505             -2.30E-01
   2      1079.000000000000        -0.229522829505             -2.30E-01

                           Spin 1           |                 Spin 2           |
     Orb |    H-eigenvalues     Occupancies |    H-eigenvalues     Occupancies |
       1 |    -1.9180629260    1.0000000000 |    -1.9180629260    1.0000000000 | 
                          ------                             ------
    1075 |    -0.2423919778    0.9831059565 |    -0.2423919778    0.9831059565 | 
    1076 |    -0.2384733082    0.9440825842 |    -0.2384733082    0.9440825842 | 
    1077 |    -0.2366551277    0.9048402834 |    -0.2366551277    0.9048402834 | 
    1078 |    -0.2345161265    0.8287449613 |    -0.2345161265    0.8287449613 | 
    1079 |    -0.2313360047    0.6393526278 |    -0.2313360047    0.6393526278 | 
                 - Gap at zero temperature - |     - Gap at zero temperature -
                  Finite temp. Fermi level   |      Finite temp. Fermi level  
    1080 |    -0.2283643504    0.4095517380 |    -0.2283643504    0.4095517380 | 
    1081 |    -0.2236837115    0.1365968647 |    -0.2236837115    0.1365968647 | 
    1082 |    -0.2203878333    0.0529199219 |    -0.2203878333    0.0529199219 | 
    1083 |    -0.2199633359    0.0465904289 |    -0.2199633359    0.0465904289 | 
    1084 |    -0.2174714989    0.0217636665 |    -0.2174714989    0.0217636665 | 
                          ------                             ------
    2234 |     0.5581919723    0.0000000000 |     0.5581919723    0.0000000000 | 

                            |  Abs_value |  Threshold | Converged
     Delta_Free_energy/atom |   4.94E+00 |   1.00E-06 |        No
     Delta_Energy/atom      |   4.94E+00 |   1.00E-04 |        No
     Delta_Entropy/atom     |   3.77E-05 |   1.00E-04 |       Yes
     Commutator             |   1.31E-03 |   1.00E-05 |        No
     Delta_Fermi_level      |   2.30E-01 |   1.00E-03 |        No

  Line search of the free energy minimum:
  Step_type        Step             Free_energy   Predicted_free_energy
.   Initial    0.000000    -3110.81098205796025

Performing  Pulay mixing of Hamiltonian with coefficients:
                        Spin 1               Spin 2
                1.000000000000       1.000000000000
Lambda-->      39.189242451915      39.189242453700     ... done

.    Trial1    0.381966    -3109.26509737960896

Performing  Pulay mixing of Hamiltonian with coefficients:
                        Spin 1               Spin 2
                1.000000000000       1.000000000000
Lambda-->      39.189242451915      39.189242453700     ... done

.    Trial2    0.145898    -3111.72889472841916

Performing  Pulay mixing of Hamiltonian with coefficients:
                        Spin 1               Spin 2
                1.000000000000       1.000000000000
Lambda-->      39.189242451915      39.189242453700     ... done

. Quadratic    0.144777    -3111.72704433604986    -3111.72894973920620

Performing  Pulay mixing of Hamiltonian with coefficients:
                        Spin 1               Spin 2
                1.000000000000       1.000000000000
Lambda-->      39.189242451915      39.189242453700     ... done

.     Cubic    0.165595    -3111.74042623304149    -3111.74491024449799

--------------------------------------------------------------------------------
  Iter                              Commutator    Free_energy(A=E-TS)     DeltaA
[...]
 C   563 -- Li  619       -0.05      0.00      5.62936
 C   223 -- Li  595       -0.06     -0.00      5.63797
 H   286 -- Li  594       -0.02     -0.00      5.64018
 C   290 -- Li  613       -0.05      0.00      5.64109
 H   314 -- Li  594       -0.01      0.00      5.64161
 C   217 -- Li  607       -0.03     -0.00      5.64287
 C   514 -- Li  616       -0.05     -0.00      5.65132
 C    49 -- Li  629       -0.06      0.00      5.65699
 Li  597 -- Li  598       -0.17     -0.00      5.65748
 C   396 -- Li  620       -0.06     -0.00      5.66401
 H   148 -- Li  623       -0.01     -0.00      5.66419
=============================================================


============== Orbital energy and occupancy information for spin 1 =============

      Total number of orbitals:    2234
        Occupancy sum (kernel):    1079.000000043
   Occupancy sum (eigenvalues):    1079.000000043
                 HOMO-LUMO gap:       0.001365794 Eh
                 Mid-gap level:      -0.081884995 Eh

                        Orbital | Energy (Eh) | Occupancy
                            1    -1.865495680   1.0000000
                        .......   ...........   .........
                         1070    -0.102255645   0.9981886
                         1071    -0.100038535   0.9964093
                         1072    -0.096849159   0.9899202
                         1073    -0.094111623   0.9765207
                         1074    -0.092709566   0.9640328
                         1075    -0.090810339   0.9361812
                         1076    -0.089986319   0.9178134
                         1077    -0.087471249   0.8344320
                         1078    -0.086051482   0.7605246
                         1079    -0.082567892   0.5126462
                        ....... -- gap at 0K -- .........
                         1080    -0.081202098   0.4002145
                         1081    -0.079743661   0.2896315
                         1082    -0.077710395   0.1671306
                         1083    -0.075249451   0.0873661
                         1084    -0.072791829   0.0427368
                         1085    -0.072085787   0.0342296
                         1086    -0.071400159   0.0269682
                         1087    -0.069183762   0.0137011
                         1088    -0.068940156   0.0128356
                         1089    -0.067657061   0.0087902
                        .......   ...........   .........
                         2234     0.772229233   0.0000000

================================================================================

============== Orbital energy and occupancy information for spin 2 =============

      Total number of orbitals:    2234
        Occupancy sum (kernel):    1078.999999956
   Occupancy sum (eigenvalues):    1078.999999956
                 HOMO-LUMO gap:       0.001365794 Eh
                 Mid-gap level:      -0.081884995 Eh

                        Orbital | Energy (Eh) | Occupancy
                            1    -1.865495680   1.0000000
                        .......   ...........   .........
                         1070    -0.102255645   0.9981885
                         1071    -0.100038535   0.9964093
                         1072    -0.096849159   0.9899202
                         1073    -0.094111623   0.9765207
                         1074    -0.092709566   0.9640328
                         1075    -0.090810340   0.9361812
                         1076    -0.089986319   0.9178134
                         1077    -0.087471248   0.8344320
                         1078    -0.086051482   0.7605246
                         1079    -0.082567892   0.5126462
                        ....... -- gap at 0K -- .........
                         1080    -0.081202098   0.4002146
                         1081    -0.079743661   0.2896315
                         1082    -0.077710395   0.1671306
                         1083    -0.075249451   0.0873661
                         1084    -0.072791829   0.0427368
                         1085    -0.072085787   0.0342296
                         1086    -0.071400159   0.0269682
                         1087    -0.069183762   0.0137011
                         1088    -0.068940156   0.0128356
                         1089    -0.067657061   0.0087902
                        .......   ...........   .........
                         2234     0.772229232   0.0000000

================================================================================

===================== Writing canonical molecular orbitals =====================
    Spin 1
| Orbital  Energy (eV)  Norm     |
| HOMO     -2.24678667  1.000000 | Writing "38/592nano_HOMO_UP.cube" ... done
Writing "38/592nano_HOMO_UP.dx" ... done
| LUMO     -2.20962152  1.000000 | Writing "38/592nano_LUMO_UP.cube" ... done
Writing "38/592nano_LUMO_UP.dx" ... done
================================================================================

===================== Writing canonical molecular orbitals =====================
    Spin 2
| Orbital  Energy (eV)  Norm     |
| HOMO     -2.24678667  1.000000 | Writing "38/592nano_HOMO_DN.cube" ... done
Writing "38/592nano_HOMO_DN.dx" ... done
| LUMO     -2.20962152  1.000000 | Writing "38/592nano_LUMO_DN.cube" ... done
Writing "38/592nano_LUMO_DN.dx" ... done
================================================================================

================== Local Density of States (LDOS) calculation ==================
Writing "38/592nano_UP_LDOS.txt" ...  done
================================================================================

================== Local Density of States (LDOS) calculation ==================
Writing "38/592nano_DN_LDOS.txt" ...  done
================================================================================
 
=============== Density of States (DOS) calculation for UP spin ================
Writing "38/592nano_UP_DOS.txt" ...  done
================================================================================
 
============== Density of States (DOS) calculation for DOWN spin ===============
Writing "38/592nano_DN_DOS.txt" ...  done
================================================================================
 
Writing bands to file "38/592nano.val_bands" ... done
 
================ Projected Density of States (pDOS) calculation ================
 
Constructing AM resolved functions  ...... done
Writing NGWF plot files in formats: CUBE DX ...  done
 
Performing overlap integrals ...  done
 
Computing pDOS weights ...  done
 
All bands spilling parameter =   3.18 %
Occupancy-weighted spilling parameter =   0.80 %
 
 => Outputting data for OptaDOS <=
 
Writing pDOS weights to file "38/592nano.val_pdos_bin" ... done
 
Writing band gradients to file "38/592nano.val_dome_bin" ... done
 
Writing Castep output cell file to "38/592nano-out.cell" ... done
 
 => Computing Gaussian smeared pDOS for UP spin<= 
Writing "38/592nano_UP_PDOS.txt" ...  done
 
 => Computing Gaussian smeared pDOS for DOWN spin<= 
Writing "38/592nano_DN_PDOS.txt" ...  done
 
 => Computing Occupancy-weighted Gaussian smeared pDOS for UP spin<= 
Writing "38/592nano_occ_UP_PDOS.txt" ...  done
  => Band centres for UP spin channel: 
 S band centre of group 1:  -18.284282 eV
 P band centre of group 1:   -8.106164 eV
  Band centres for UP spin channel done. <= 
  => Integrated number of electrons in each AM band for UP spin channel: 
 S num electrons of group 1:  304.481030
 P num electrons of group 1:  765.872163
  Integrated number of electrons for UP spin channel done. <= 
 
 => Computing Occupancy-weighted Gaussian smeared pDOS for DOWN spin<= 
Writing "38/592nano_occ_DN_PDOS.txt" ...  done
  => Band centres for DOWN spin channel: 
 S band centre of group 1:  -18.284282 eV
 P band centre of group 1:   -8.106164 eV
  Band centres for DOWN spin channel done. <=
  => Integrated number of electrons in each AM band for DOWN spin channel: 
 S num electrons of group 1:  304.481030
 P num electrons of group 1:  765.872163
  Integrated number of electrons for DOWN spin channel done. <=
================================================================================

------------------------------ TIMING INFORMATION ------------------------------
AVERAGE TIME:    9155.606s on    160 proc(s)                                    
TOTAL TIME:      9155.680s on    160 proc(s)                                    
================= AVERAGE TIMINGS FROM ALL PROCS (CUMULATIVE) ==================
|| TAG                                    #calls    cpu time   %total  Gflops ||
|| work_imbalance                       :     1        0.00s   0.000%  ------ ||
|| paw_dij_hartree                      :   308        0.01s   0.000%  ------ ||
|| paw_tcore_density                    :     1        0.02s   0.000%  ------ ||
|| sparse_set_to_garbage                :   462        0.02s   0.000%  ------ ||
|| paw_sphere_density_on_grid           :     1        0.02s   0.000%  ------ ||
|| ngwfs_initialise_from_radial         :     2        0.03s   0.000%  ------ ||
|| basis_extract_function_from_box      :   614        0.04s   0.000%  ------ ||
|| ewald_calculate_energy               :     1        0.11s   0.001%  ------ ||
|| paw_dataset_init                     :     3        0.28s   0.003%  ------ ||
|| paw_tcore_hartree_on_grid            :     1        0.37s   0.004%  ------ ||
|| pseudo_make_structure_factor         :     1        0.65s   0.007%  ------ ||
|| density_init_guess_real              :     1        0.79s   0.009%  ------ ||
|| sparse_init                          :     1        1.10s   0.012%  ------ ||
|| dense_normal_eigensolve              :     1        1.49s   0.016%  ------ ||
|| paw_species_calc_proj_prec_mat       :     1        1.49s   0.016%  ------ ||
|| restart_kernel_write                 :    23        2.61s   0.029%  ------ ||
|| sw_init                              :     1        4.97s   0.054%  ------ ||
|| basis_copy_function_to_box           :  9354        6.24s   0.068%  ------ ||
|| augmentation_screen_dij              :   217        6.73s   0.074%  ------ ||
|| paw_dij_xc                           :   308       10.93s   0.119%  ------ ||
|| sparse_embed_hotelling_invert_embed  :    53       13.17s   0.144%  ------ ||
|| ngwf_gradient_coeffs                 :    22       16.06s   0.175%  ------ ||
|| fourier_apply_box_pair               :  1606       17.40s   0.190%  2.438k ||
|| projectors_init_fftbox_recip         :    98       24.20s   0.264%  ------ ||
|| aug_nonlocal_mat                     :   286       34.92s   0.381%  ------ ||
|| hartree_on_grid                      :   208       40.04s   0.437%  ------ ||
|| sparse_trace                         :  6750       44.87s   0.490%  ------ ||
|| basis_dot_function_with_box          : 2.727M      47.62s   0.520%  ------ ||
|| augmentation_density_on_grid         :   208       48.99s   0.535%  ------ ||
|| eigenstates_pdos                     :     1       67.03s   0.732%  ------ ||
|| projectors_func_ovlp_box             :    53       75.43s   0.824%  ------ ||
|| integrals_kinetic                    :    52       89.40s   0.976%  ------ ||
|| hamiltonian_energy_components        :     5      133.27s   1.456%  ------ ||
|| eigenstates_calculate                :     1      133.57s   1.459%  ------ ||
|| function_ops_brappd_ketppd           :   106      139.34s   1.522%  ------ ||
|| basis_add_function_to_box            : 6.945M     149.86s   1.637%  ------ ||
|| dense_eigensolve                     :   298      210.35s   2.298%  ------ ||
|| cell_grid_deposit_box_real           : 15065      235.26s   2.570%  ------ ||
|| sparse_product                       :  8730      238.39s   2.604%  ------ ||
|| integrals_locpot_mat_els_batch       :   177      288.73s   3.154%  ------ ||
|| fourier_apply_cell_forward           :  7660      315.90s   3.450%  84.398 ||
|| restart_ngwfs_tightbox_output        :    21      355.80s   3.886%  ------ ||
|| fourier_apply_cell_backward          :  8489      357.09s   3.900%  82.743 ||
|| density_batch_row_sums               :   208      359.97s   3.932%  ------ ||
|| cell_grid_extract_box_real           :  5726      374.53s   4.091%  ------ ||
|| density_fftbox_deposit_to_cell       :  6656      430.46s   4.702%  ------ ||
|| density_fftbox_interpolate_multiply  :  6656      436.67s   4.769%  ------ ||
|| edft_diag_ngwf_ham                   :   296      491.32s   5.366%  ------ ||
|| fourier_apply_box                    : 32421      545.22s   5.955%  4.970k ||
|| potential_apply_to_ngwf_batch        :   177      575.75s   6.289%  ------ ||
|| projectors_gradient_batch            :    22      659.44s   7.203%  ------ ||
|| xc_energy_potential                  :   207      708.39s   7.737%  ------ ||
|| edft_apply_smearing_operator         :   148      790.62s   8.635%  ------ ||
|| integrals_locpot_dbl_grid            :   177      870.91s   9.512%  ------ ||
|| properties_calculate                 :     1      930.73s  10.166%  ------ ||
|| nlxc_vdw_energy                      :   414     1002.27s  10.947%  ------ ||
|| density_batch_interp_deposit         :   208     1145.07s  12.507%  ------ ||
|| projectors_grad_precond_batch        :    22     1188.89s  12.985%  ------ ||
|| density_on_dbl_grid                  :   208     1522.19s  16.626%  ------ ||
|| ngwf_gradient_build_batch            :    22     2053.68s  22.431%  ------ ||
|| ngwf_gradient_batch                  :    22     2270.00s  24.794%  ------ ||
|| ngwf_gradient_lnv                    :    22     2294.87s  25.065%  ------ ||
|| hamiltonian_lhxc_calculate           :   201     2318.43s  25.323%  ------ ||
|| edft_calculate                       :    22     3787.29s  41.366%  ------ ||
|| ngwf_cg_optimise                     :     1     8198.85s  89.550%  ------ ||
|| total_time                           :     1     9155.61s 100.000%  ------ ||
================================================================================
==================== AVERAGE TIMINGS FROM ALL PROCS (SELF) =====================
++ TAG                                    #calls    cpu time   %total  Gflops ++
++ nlxc_vdw_energy                      :   414      -21.31s  -0.233%  ------ ++
++ work_imbalance                       :     1        0.00s   0.000%  ------ ++
++ paw_sphere_density_on_grid           :     1        0.01s   0.000%  ------ ++
++ paw_tcore_density                    :     1        0.01s   0.000%  ------ ++
++ paw_tcore_hartree_on_grid            :     1        0.01s   0.000%  ------ ++
++ paw_dij_hartree                      :   308        0.01s   0.000%  ------ ++
++ sparse_set_to_garbage                :   462        0.02s   0.000%  ------ ++
++ ngwfs_initialise_from_radial         :     2        0.03s   0.000%  ------ ++
++ basis_extract_function_from_box      :   614        0.04s   0.000%  ------ ++
++ ewald_calculate_energy               :     1        0.11s   0.001%  ------ ++
++ sparse_embed_hotelling_invert_embed  :    53        0.20s   0.002%  ------ ++
++ paw_dataset_init                     :     3        0.28s   0.003%  ------ ++
++ ngwf_gradient_coeffs                 :    22        0.30s   0.003%  ------ ++
++ density_init_guess_real              :     1        0.43s   0.005%  ------ ++
++ pseudo_make_structure_factor         :     1        0.65s   0.007%  ------ ++
++ sparse_init                          :     1        1.10s   0.012%  ------ ++
++ paw_species_calc_proj_prec_mat       :     1        1.25s   0.014%  ------ ++
++ dense_normal_eigensolve              :     1        1.49s   0.016%  ------ ++
++ hartree_on_grid                      :   208        1.77s   0.019%  ------ ++
++ hamiltonian_energy_components        :     5        2.23s   0.024%  ------ ++
++ main_program_(onetep.F90)            :     1        2.31s   0.025%  ------ ++
++ restart_kernel_write                 :    23        2.61s   0.029%  ------ ++
++ aug_nonlocal_mat                     :   286        3.08s   0.034%  ------ ++
++ augmentation_screen_dij              :   217        3.85s   0.042%  ------ ++
++ sw_init                              :     1        4.97s   0.054%  ------ ++
++ basis_copy_function_to_box           :  9354        6.24s   0.068%  ------ ++
++ integrals_locpot_dbl_grid            :   177        6.42s   0.070%  ------ ++
++ ngwf_gradient_lnv                    :    22        8.80s   0.096%  ------ ++
++ paw_dij_xc                           :   308       10.93s   0.119%  ------ ++
++ augmentation_density_on_grid         :   208       16.91s   0.185%  ------ ++
++ density_on_dbl_grid                  :   208       17.16s   0.187%  ------ ++
++ fourier_apply_box_pair               :  1606       17.40s   0.190%  2.438k ++
++ projectors_init_fftbox_recip         :    98       24.20s   0.264%  ------ ++
++ projectors_func_ovlp_box             :    53       42.54s   0.465%  ------ ++
++ sparse_trace                         :  6750       44.87s   0.490%  ------ ++
++ basis_dot_function_with_box          : 2.727M      47.62s   0.520%  ------ ++ (!) overhead: ~   6.2%
++ eigenstates_calculate                :     1       48.49s   0.530%  ------ ++
++ eigenstates_pdos                     :     1       55.40s   0.605%  ------ ++
++ edft_calculate                       :    22       60.56s   0.661%  ------ ++
++ hamiltonian_lhxc_calculate           :   201       65.44s   0.715%  ------ ++
++ integrals_kinetic                    :    52       75.40s   0.824%  ------ ++
++ ngwf_gradient_build_batch            :    22       82.40s   0.900%  ------ ++
++ xc_energy_potential                  :   207       95.32s   1.041%  ------ ++
++ density_fftbox_interpolate_multiply  :  6656      132.61s   1.448%  ------ ++
++ function_ops_brappd_ketppd           :   106      139.34s   1.522%  ------ ++
++ ngwf_gradient_batch                  :    22      145.36s   1.588%  ------ ++
++ basis_add_function_to_box            : 6.945M     149.86s   1.637%  ------ ++ (!) overhead: ~   5.0%
++ density_batch_interp_deposit         :   208      191.20s   2.088%  ------ ++
++ density_fftbox_deposit_to_cell       :  6656      200.18s   2.186%  ------ ++
++ dense_eigensolve                     :   298      210.35s   2.298%  ------ ++
++ cell_grid_deposit_box_real           : 15065      235.26s   2.570%  ------ ++
++ sparse_product                       :  8730      238.39s   2.604%  ------ ++
++ integrals_locpot_mat_els_batch       :   177      254.16s   2.776%  ------ ++
++ edft_apply_smearing_operator         :   148      274.98s   3.003%  ------ ++
++ density_batch_row_sums               :   208      280.41s   3.063%  ------ ++
++ edft_diag_ngwf_ham                   :   296      282.64s   3.087%  ------ ++
++ fourier_apply_cell_forward           :  7660      315.90s   3.450%  84.398 ++
++ potential_apply_to_ngwf_batch        :   177      321.18s   3.508%  ------ ++
++ restart_ngwfs_tightbox_output        :    21      355.78s   3.886%  ------ ++
++ fourier_apply_cell_backward          :  8489      357.09s   3.900%  82.743 ++
++ cell_grid_extract_box_real           :  5726      374.53s   4.091%  ------ ++
++ properties_calculate                 :     1      540.29s   5.901%  ------ ++
++ fourier_apply_box                    : 32421      545.22s   5.955%  4.970k ++
++ projectors_gradient_batch            :    22      643.21s   7.025%  ------ ++
++ ngwf_cg_optimise                     :     1      954.24s  10.422%  ------ ++
++ projectors_grad_precond_batch        :    22     1170.15s  12.781%  ------ ++
================================================================================
(!) WARNING: You're wasting precious cycles calling timer. 
             Each pair of timer_clock calls itself cost   1.08 microseconds!
Overhead of generating timer report: 
- 1 ms averaging over threads,
- 28 ms ensuring consistency across MPI ranks,
- 1 ms printing in order.

Job completed: 08-12-2021 21:09 (-0000)

