 +---------------------------------------------------------------+
 |                                                               |
 |        ####### #     # ####### ####### ####### ######         |
 |        #     # ##    # #          #    #       #     #        |
 |        #     # # #   # #          #    #       #     #        |
 |        #     # #  #  # #####      #    #####   ######         |
 |        #     # #   # # #          #    #       #              |
 |        #     # #    ## #          #    #       #              |
 |        ####### #     # #######    #    ####### #              |
 |                                                               |
 |        Linear-Scaling Ab Initio Total Energy Program          |
 |                                                               |
 |          Release for academic collaborators of ODG            |
 |                                             Version 5.3.2.12  |
 |                                                               |
 +---------------------------------------------------------------+
 |                                                               |
 |  Authors:                                                     |
 |  Jacek Dziedzic, Peter D. Haynes, Nicholas D. M. Hine,        |
 |  Arash. A. Mostofi, Mike C. Payne and Chris-Kriton Skylaris   |
 |                                                               |
 |  Contributors:                                                |
 |  J. Aarons, L. Andrinopoulos, P. W. Avraam, R. A. Bell,       |
 |  A. Bhandari, G. A. Bramley, R. J. Charlton, S. J. Clark,     |
 |  R. J. Clements, G. C. Constantinescu, F. Corsetti,           |
 |  N. Corsini, O. Dieguez, S. M. M. Dubois, K. K. B. Duff,      |
 |  J. M. Escartin, A. Greco, H. Helal, Q. O. Hill, L. P. Lee,   |
 |  J.-H. Li, E. B. Linscott, G. Moynihan, D. D. O`Regan,        |
 |  O. K. Okan, M. J. S. Phipps, C. J. Pickard,                  |
 |  J. C. A. Prentice, M. I. J. Probert, L. E. Ratcliff,         |
 |  M. Robinson, A. Ruiz Serrano, J. S. Spencer, E. W. Tait,     |
 |  G. Teobaldi, D. Turban, V. Vitale, K. A. Wilkinson,          |
 |  C. Weber, J. C. Womack, N. Yeung and T. J. Zuehlsdorff       |
 |                                                               |
 |                                   Copyright (c) 2004-2020     |
 |                                                               |
 |  Please cite:                                                 |
 |  "Introducing ONETEP: Linear-scaling density functional       |
 |   simulations on parallel computers".                         |
 |   C.-K. Skylaris, P. D. Haynes, A. A. Mostofi, M. C. Payne.   |
 |   J. Chem. Phys. 122 084119 (2005).                           |
 |                                                               |
 |          in all publications arising from your use of ONETEP. |
 |                                                               |
 +---------------------------------------------------------------+
 |                                                               |
 |   ONETEP is based on developments described in the following  |
 |   publications:                                               |
 |                                                               |
 |  "Nonorthogonal generalized Wannier function pseudopotential  |
 |   plane-wave method".                                         |
 |   C.-K. Skylaris, A. A. Mostofi, P. D. Haynes, O. Dieguez,    |
 |   M. C. Payne.                                                |
 |   Phys. Rev. B 66 035119 (2002).                              |
 |                                                               |
 |  "Preconditioned iterative minimization for linear-scaling    |
 |   electronic structure calculations".                         |
 |   A. A. Mostofi, P. D. Haynes, C.-K. Skylaris, M. C. Payne.   |
 |   J. Chem. Phys. 119(17), pp.8842-8848 (2003).                |
 |                                                               |
 |  "Total-energy calculations on a real space grid with         |
 |   localized functions and a plane-wave basis".                |
 |   A. A. Mostofi, C.-K. Skylaris, P. D. Haynes, M. C. Payne.   |
 |   Comput. Phys. Commun. 147, pp.788-802 (2002).               |
 |                                                               |
 |  "Accurate kinetic energy evaluation in electronic structure  |
 |   calculations with localized functions on real space grids"  |
 |   C.-K. Skylaris, A. A. Mostofi, P. D. Haynes, C. J. Pickard, |
 |   M. C. Payne.                                                |
 |   Comput. Phys. Commun. 140, pp.315-322 (2001).               |
 |                                                               |
 |  "Accurate ionic forces and geometry optimization in linear-  |
 |   scaling density-functional theory with local orbitals"      |
 |   N. D. M. Hine, M. Robinson, P. D. Haynes, C.-K. Skylaris,   |
 |   M. C. Payne, and A. A. Mostofi.                             |
 |   Phys. Rev. B 83 195102 (2011).                              |
 |                                                               |
 +---------------------------------------------------------------+

Job started: 13-07-2020 02:56 (+0100)
 
Reading parameters from file "592nano.dat" ...... done

If your calculation crashes here, before "Checking processes and threads..."
is displayed, then your stack size is insufficient.
If so, use "ulimit -s unlimited" at runtime.
You can disable this check with "check_stack_size F".

Checking processes and threads...
   Determining the default number of threads...
      No default threads set at compilation time: defaulting to 1.
      OpenMP library call suggests 4 threads.
      Hybrid MPI-OpenMP compilation detected.
      Number of MPI processes > 1.
      OMP_NUM_THREADS environment variable present and
      its value matches the one obtained from the OpenMP library call.
      Using this value as default.
      Default threads: 4
      Default applies to threads_max and threads_num_fftboxes.
      Settings in the input file override this default.
   ... done

   Running with 150 MPI processes.
   There are 10 MPI processes running on the same node as the root process.
   Each MPI process is using: 
               1 threads for simulation cell FFTs.
               1 threads for parallel FFT box operations.
               4 threads for loops over batched FFT box operations.
               4 threads in other parallel regions.
... done

Basic input checks...
Resetting ngwf_cg_rotate to TRUE for EDFT calculations
... done

Reading geometry and species blocks from file "592nano.dat" ...    
  Number of PPD points along a3 set to 1.  This is 
  the default value, it may have been provided also in the input file.
... done


--------------------------------------------------------------------------------
---------------------------------- INPUT FILE ----------------------------------
--------------------------------------------------------------------------------

task : geometryoptimization                                                     
ddec_classical_hirshfeld T                                                      
do_properties : true                                                            
dx_format T                                                                     
edft T                                                                          
output_detail VERBOSE                                                           
write_xyz T                                                                     
dispersion 4                                                                    
xc_functional PBE                                                               
cutoff_energy 830 eV                                                            
paw T                                                                           
geom_continuation T                                                             
geom_disp_tol 0.015 bohr                                                        
geom_energy_tol 1.5E-6 hartree                                                  
geom_force_tol 0.01 "ha/bohr"                                                   
%BLOCK SPECIES_LDOS_GROUPS                                                      
C                                                                               
H                                                                               
Li                                                                              
%ENDBLOCK SPECIES_LDOS_GROUPS                                                   
EDFT_MAXIT 30                                                                   
pdos_max_l = 2                                                                  
dos_smear  0.1 eV                                                               
popn_calculate T                                                                
PDOS_PSEUDOATOMIC T                                                             
PDOS_REDUCE_SWS F                                                               
PDOS_CONSTRUCT_BASIS F                                                          
PDOS_LOWDIN T                                                                   
PDOS_ORTH_ATOM_BLOCKS F                                                         
PDOS_LCAO_OPTIMIZE F                                                            
pdos_optados_output T                                                           
homo_plot 0                                                                     
lumo_plot 0                                                                     
homo_dens_plot -1                                                               
lumo_dens_plot -1                                                               
%BLOCK SPECIES                                                                  
C C 6 4 9.0                                                                     
H H 1 1 9.0                                                                     
Li Li 3 5 9.0                                                                   
%ENDBLOCK SPECIES                                                               
%BLOCK SPECIES_POT                                                              
C "~/pp/paw/c_pbe_abinit.paw"                                                   
H "~/pp/paw/h_pbe_abinit.paw"                                                   
Li "~/pp/paw/li_pbe_abinit.paw"                                                 
%ENDBLOCK SPECIES_POT                                                           
%BLOCK SPECIES_ATOMIC_SET                                                       
C "SOLVE conf=2s2 2p2"                                                          
H "SOLVE conf=1s1"                                                              
Li "SOLVE conf=1s2 2s1 2p0"                                                     
%ENDBLOCK SPECIES_ATOMIC_SET                                                    
%BLOCK LATTICE_CART                                                             
94.486315650000      0.000000000000       0.000000000000                        
0.000000000000       94.486315650000      0.000000000000                        
0.000000000000       0.000000000000       94.486315650000                       
%ENDBLOCK LATTICE_CART                                                          
%BLOCK POSITIONS_ABS                                                            
C 45.516415 50.726999 30.651159                                                 
C 45.416154 50.550646 36.785701                                                 
C 46.865959 53.064506 30.654929                                                 
C 48.111214 50.548864 36.797899                                                 
C 49.569581 48.396058 30.668254                                                 
C 49.456906 48.211446 36.781941                                                 
C 50.922732 50.731553 30.670539                                                 
C 52.150801 48.204966 36.792164                                                 
C 45.515463 55.397932 30.570776                                                 
C 45.424484 55.211858 36.762439                                                 
C 46.863728 57.735896 30.473515                                                 
C 48.120813 55.212147 36.792630                                                 
C 49.566697 53.067309 30.658734                                                 
C 49.463463 52.879653 36.811455                                                 
C 50.912894 55.400492 30.544454                                                 
C 52.160839 52.878372 36.844069                                                 
C 45.397004 50.534006 42.987518                                                 
C 45.418282 50.443518 49.113912                                                 
C 46.746460 52.867576 42.981875                                                 
C 48.118682 50.457763 49.124349                                                 
C 49.436684 48.190328 42.985707                                                 
C 49.475731 48.124018 49.194641                                                 
C 50.787374 50.519773 42.991074                                                 
C 52.173142 48.137456 49.323278                                                 
C 45.400013 55.203594 42.984340                                                 
C 45.401676 55.117810 49.192048                                                 
C 46.746232 57.535457 42.979921                                                 
C 48.101683 55.138921 49.172559                                                 
C 49.441711 52.854946 42.993396                                                 
C 49.458916 52.804255 49.145547                                                 
C 50.792084 55.183588 43.000549                                                 
C 52.151919 52.822057 49.243788                                                 
C 57.664414 48.376006 30.220918                                                 
C 57.523611 48.174677 36.960119                                                 
C 59.024383 50.699274 30.116390                                                 
C 60.242262 48.158953 37.151108                                                 
C 57.529032 48.161141 42.929551                                                 
C 57.532590 48.168029 49.861096                                                 
C 58.892855 50.499847 42.885818                                                 
C 60.259060 48.184201 50.161478                                                 
C 53.622484 50.728657 30.582001                                                 
C 53.502019 50.537833 36.845883                                                 
C 54.976669 53.066401 30.491542                                                 
C 56.190721 50.529383 36.932563                                                 
C 53.486352 50.509789 42.999232                                                 
C 53.507307 50.485026 49.361668                                                 
C 54.835084 52.838484 42.996837                                                 
C 56.199125 50.501577 49.624938                                                 
C 57.659385 43.698869 30.295135                                                 
C 57.521565 43.510158 36.692947                                                 
C 58.997466 46.010046 30.063177                                                 
C 60.219186 43.510861 36.771118                                                 
C 57.511277 43.484231 42.736628                                                 
C 57.579163 43.488744 49.948102                                                 
C 58.876457 45.798748 42.839789                                                 
C 60.293739 43.520910 50.191335                                                 
C 53.618514 46.059620 30.538592                                                 
C 53.487650 45.870100 36.739329                                                 
C 54.966419 48.388848 30.486374                                                 
C 56.184421 45.856882 36.798960                                                 
C 53.472842 45.842250 42.949682                                                 
C 53.527408 45.802887 49.495226                                                 
C 54.831108 48.172284 42.973951                                                 
C 56.214122 45.824300 49.752945                                                 
C 57.674027 57.732365 30.272364                                                 
C 57.559929 57.538992 37.027893                                                 
C 59.030864 60.118542 30.244226                                                 
C 60.254205 57.528491 37.055434                                                 
C 57.541156 57.501522 42.930586                                                 
C 57.540413 57.527177 49.466892                                                 
C 58.889723 59.831237 42.963196                                                 
C 60.284365 57.506782 49.529542                                                 
C 45.495733 64.741352 30.181798                                                 
C 45.441889 64.551723 36.594365                                                 
C 46.883087 67.101006 30.137011                                                 
C 48.111361 64.566676 36.869074                                                 
C 49.543827 62.389881 30.029590                                                 
C 49.474559 62.217701 36.894840                                                 
C 50.907793 64.761206 29.753804                                                 
C 52.177445 62.222169 37.006567                                                 
C 45.406442 64.553076 42.955880                                                 
C 45.346036 64.425209 50.159920                                                 
C 46.779645 66.900614 42.892401                                                 
C 48.026273 64.463032 50.103875                                                 
C 49.437351 62.184004 42.841523                                                 
C 49.417835 62.143705 49.775803                                                 
C 50.798887 64.552473 42.713857                                                 
C 52.117362 62.173406 49.760240                                                 
C 53.609229 60.055724 30.095346                                                 
C 53.519404 59.878423 36.992246                                                 
C 54.978267 62.421726 29.822041                                                 
C 56.234320 59.868351 37.089104                                                 
C 53.490185 59.813727 42.851613                                                 
C 53.481248 59.853134 49.508730                                                 
C 54.855644 62.161406 42.767148                                                 
C 56.192523 59.863062 49.510166                                                 
C 57.677565 53.052303 30.297654                                                 
C 57.530045 52.870917 37.024706                                                 
C 59.034234 55.398283 30.210341                                                 
C 60.254421 52.866863 37.191067                                                 
C 57.539392 52.834983 42.914163                                                 
C 57.524810 52.855288 49.697116                                                 
C 58.894543 55.187979 42.862689                                                 
C 60.250032 52.867036 50.001124                                                 
C 45.508824 60.069565 30.344924                                                 
C 45.435140 59.874483 36.695615                                                 
C 46.856249 62.393574 30.181662                                                 
C 48.131292 59.880948 36.791103                                                 
C 49.558976 57.737659 30.439563                                                 
C 49.475620 57.548166 36.817382                                                 
C 50.907712 60.070718 30.194561                                                 
C 52.166388 57.545216 36.882665                                                 
C 45.398720 59.870456 42.972061                                                 
C 45.384189 59.780060 49.544993                                                 
C 46.753106 62.199763 42.923320                                                 
C 48.075915 59.802150 49.492668                                                 
C 49.443873 57.521124 42.972909                                                 
C 49.440830 57.484296 49.282674                                                 
C 50.792404 59.849117 42.893186                                                 
C 52.144860 57.509044 49.313312                                                 
C 53.611653 55.400403 30.458415                                                 
C 53.506690 55.205217 36.893462                                                 
C 54.957869 57.736838 30.277445                                                 
C 56.203457 55.199361 36.973323                                                 
C 53.485765 55.168281 42.988230                                                 
C 53.494342 55.173777 49.294591                                                 
C 54.834496 57.502743 42.929016                                                 
C 56.188566 55.177524 49.470556                                                 
H 27.296396 41.362086 29.607064                                                 
H 28.246612 39.440628 36.694305                                                 
H 27.169426 41.242060 42.581027                                                 
H 28.293730 39.289323 50.638455                                                 
H 41.878235 30.293815 29.639208                                                 
C 42.928053 32.075572 29.648618                                                 
H 44.445927 30.110622 36.842643                                                 
H 41.703217 30.088151 42.831554                                                 
C 42.740631 31.874404 42.922133                                                 
H 44.489530 29.984074 49.585130                                                 
H 29.642928 37.267260 29.518945                                                 
C 30.681945 39.051509 29.592408                                                 
H 32.268512 37.112286 36.959706                                                 
H 33.756784 34.880029 29.515812                                                 
C 34.776509 36.675616 29.584602                                                 
H 29.472909 37.164464 43.005864                                                 
C 30.516240 38.951108 42.981693                                                 
H 32.375824 36.966633 50.702367                                                 
H 33.527114 34.758521 43.084244                                                 
C 34.571221 36.542854 43.109353                                                 
H 37.849449 32.593035 29.402298                                                 
C 38.861260 34.396251 29.450524                                                 
H 40.386122 32.433245 37.094405                                                 
H 37.627046 32.403341 42.892320                                                 
C 38.652184 34.197483 42.918113                                                 
H 40.424203 32.321526 50.158932                                                 
H 46.544461 30.295139 30.046362                                                 
H 46.380552 30.110176 43.156765                                                 
H 25.807269 48.140731 36.681391                                                 
C 27.875415 48.193622 36.684166                                                 
H 25.824186 48.031313 50.074132                                                 
C 27.889676 48.043003 50.024191                                                 
H 25.874171 43.492630 36.707379                                                 
H 27.295379 46.076276 29.481936                                                 
C 27.941722 43.487309 36.750011                                                 
H 25.892127 43.310450 50.239850                                                 
H 27.202074 45.943382 42.539294                                                 
C 27.959586 43.332346 50.219873                                                 
H 25.858524 57.718014 36.935668                                                 
H 27.338522 60.052357 29.403709                                                 
C 27.927463 57.684847 36.857871                                                 
H 25.816233 57.424017 49.510239                                                 
H 27.229931 59.872842 43.206263                                                 
C 27.882063 57.422744 49.577202                                                 
H 25.770771 52.949264 36.328392                                                 
H 27.335117 55.393097 29.398258                                                 
C 27.841703 52.938248 36.341582                                                 
H 25.799077 52.723884 49.833752                                                 
H 27.241078 55.212272 43.498489                                                 
C 27.868533 52.719824 49.808337                                                 
C 29.362313 41.356549 29.648493                                                 
C 29.255954 41.244024 36.741202                                                 
C 30.642848 43.716478 29.715342                                                 
C 31.940583 41.186930 36.820100                                                 
C 33.375326 38.960934 29.641319                                                 
C 33.305378 38.903193 36.908571                                                 
C 34.736433 41.360067 29.804973                                                 
C 35.965626 38.847696 37.093365                                                 
C 29.361708 46.066575 29.576225                                                 
C 29.204468 45.856756 36.812290                                                 
C 30.669947 48.386354 29.500950                                                 
C 31.920404 45.855523 36.828045                                                 
C 33.385894 43.697923 29.839788                                                 
C 33.273306 43.539586 36.837987                                                 
C 34.738790 46.049302 29.940024                                                 
C 35.977596 43.544207 36.859013                                                 
C 29.232228 41.229115 42.716826                                                 
C 29.304329 41.084783 50.468598                                                 
C 30.537513 43.583640 42.678061                                                 
C 31.993940 41.038677 50.443623                                                 
C 33.205300 38.846329 43.027464                                                 
C 33.394762 38.758477 50.517961                                                 
C 34.570309 41.213840 43.019397                                                 
C 36.048635 38.738608 50.460627                                                 
C 29.263562 45.935544 42.675298                                                 
C 29.206395 45.713223 50.089500                                                 
C 30.562444 48.246830 42.774900                                                 
C 31.943379 45.710186 49.959707                                                 
C 33.252250 43.550824 42.880614                                                 
C 33.319526 43.400946 50.110521                                                 
C 34.619390 45.890512 42.933208                                                 
C 36.023762 43.414237 49.931999                                                 
C 41.504119 39.057378 29.795771                                                 
C 41.385445 38.880099 36.920758                                                 
C 42.842318 41.393183 30.110473                                                 
C 44.076032 38.880546 36.798652                                                 
C 41.333457 38.859938 43.014219                                                 
C 41.454343 38.770240 49.951217                                                 
C 42.686879 41.199771 43.066136                                                 
C 44.131026 38.770712 49.704986                                                 
C 37.452380 41.366075 29.903239                                                 
C 37.326099 41.226074 36.947962                                                 
C 38.784693 43.708447 30.136635                                                 
C 40.027831 41.216954 36.886174                                                 
C 37.289789 41.203866 43.080081                                                 
C 37.392706 41.106999 50.102411                                                 
C 38.649063 43.535856 43.072088                                                 
C 40.080703 41.091951 49.852273                                                 
C 41.516095 34.374949 29.498347                                                 
C 41.411055 34.224805 37.015035                                                 
C 42.882159 36.727047 29.589626                                                 
C 44.076228 34.187491 36.860885                                                 
C 41.329018 34.164329 42.864522                                                 
C 41.455126 34.112384 50.064616                                                 
C 42.696563 36.512342 42.961758                                                 
C 44.118082 34.061700 49.759826                                                 
C 37.459994 36.650787 29.527901                                                 
C 37.347683 36.560061 37.013080                                                 
C 38.818476 39.031395 29.728831                                                 
C 40.015451 36.503904 37.018567                                                 
C 37.252369 36.472962 42.993435                                                 
C 37.430765 36.452752 50.282176                                                 
C 38.634433 38.855734 43.043746                                                 
C 40.102989 36.396386 50.258038                                                 
C 41.470009 48.386638 30.475627                                                 
C 41.363691 48.221398 36.775403                                                 
C 42.818637 50.724144 30.563783                                                 
C 44.064068 48.217769 36.776810                                                 
C 41.356416 48.204992 43.007892                                                 
C 41.376644 48.090333 49.256557                                                 
C 42.702796 50.538227 42.994059                                                 
C 44.076386 48.101391 49.179470                                                 
C 29.403456 55.392018 29.464044                                                 
C 29.172718 55.317770 36.642510                                                 
C 30.701370 57.719142 29.517826                                                 
C 31.901466 55.286524 36.780796                                                 
C 33.418538 53.067540 29.734477                                                 
C 33.255306 52.907707 36.728370                                                 
C 34.752134 55.392048 29.844541                                                 
C 35.955283 52.896704 36.797345                                                 
C 29.318621 55.229814 43.516876                                                 
C 29.156827 55.041414 49.626907                                                 
C 30.595749 57.561681 43.321094                                                 
C 31.897646 55.065945 49.592812                                                 
C 33.321220 52.900230 43.320756                                                 
C 33.255011 52.725497 49.584834                                                 
C 34.641420 55.222299 43.207709                                                 
C 35.955027 52.739112 49.443269                                                 
C 37.429514 50.722345 30.222091                                                 
C 37.309337 50.558275 36.789955                                                 
C 38.775726 53.059577 30.296260                                                 
C 40.012298 50.554748 36.777726                                                 
C 37.329473 50.546613 43.027100                                                 
C 37.315536 50.411006 49.384538                                                 
C 38.673478 52.883770 43.004677                                                 
C 40.014819 50.420434 49.254536                                                 
C 41.482203 43.717952 30.258247                                                 
C 41.370044 43.551431 36.807131                                                 
C 42.823202 46.052745 30.453879                                                 
C 44.067891 43.549778 36.762772                                                 
C 41.343196 43.533398 43.068971                                                 
C 41.407560 43.427846 49.537145                                                 
C 42.695130 45.868493 43.039005                                                 
C 44.104993 43.438251 49.416218                                                 
C 29.392530 50.726672 29.597412                                                 
C 29.126112 50.548491 36.573851                                                 
C 30.693597 53.068598 29.424066                                                 
C 31.898409 50.557776 36.680844                                                 
C 33.406320 48.380300 29.795839                                                 
C 33.260508 48.222368 36.781737                                                 
C 34.742922 50.720510 29.944285                                                 
C 35.967874 48.223053 36.791746                                                 
C 29.290355 50.574978 43.210032                                                 
C 29.160192 50.405944 49.927284                                                 
C 30.607871 52.903078 43.536227                                                 
C 31.912756 50.405321 49.765897                                                 
C 33.294821 48.223212 42.947080                                                 
C 33.278207 48.070112 49.750498                                                 
C 34.640235 50.554499 43.117096                                                 
C 35.978413 48.073248 49.548189                                                 
C 37.433269 46.043510 30.161442                                                 
C 37.319846 45.889463 36.812542                                                 
C 38.777331 48.381587 30.313525                                                 
C 40.014776 45.888456 36.795392                                                 
C 37.314882 45.875953 43.017119                                                 
C 37.341729 45.749358 49.606576                                                 
C 38.665468 48.205960 43.000248                                                 
C 40.040090 45.754005 49.441367                                                 
C 45.510318 32.076834 29.876596                                                 
C 45.484446 31.891564 36.706182                                                 
C 46.923123 34.375887 29.965742                                                 
C 48.054727 31.888872 36.391810                                                 
H 49.090248 30.102644 36.282875                                                 
H 50.574825 32.598366 30.264914                                                 
C 45.558006 36.722134 29.888394                                                 
C 45.436024 36.532260 36.715885                                                 
C 46.886462 39.054972 30.157566                                                 
C 48.105773 36.535367 36.412653                                                 
C 49.555580 34.394230 30.168573                                                 
C 49.468851 34.186358 36.229202                                                 
C 50.940249 36.661686 30.300771                                                 
C 52.129860 34.222161 36.074582                                                 
C 45.330323 31.889687 43.107717                                                 
C 45.526266 31.772198 49.609444                                                 
C 46.723435 34.185973 43.233538                                                 
C 48.169245 31.770850 49.533368                                                 
H 49.198587 29.979923 49.454823                                                 
H 50.405162 32.429583 43.484130                                                 
C 45.372646 36.520439 43.131313                                                 
C 45.496632 36.425730 49.661695                                                 
C 46.720572 38.858405 43.162159                                                 
C 48.190964 36.428869 49.590975                                                 
C 49.378351 34.223851 43.404224                                                 
C 49.589099 34.067297 49.602552                                                 
C 50.756365 36.493652 43.423551                                                 
C 52.241956 34.118625 49.777557                                                 
H 53.156860 32.429518 35.994824                                                 
H 53.281513 32.330764 49.785690                                                 
C 57.663119 39.071828 30.435357                                                 
C 57.527569 38.843648 36.374606                                                 
C 59.004962 41.347497 30.323689                                                 
C 60.223565 38.911735 36.433972                                                 
C 57.451791 38.831225 42.571228                                                 
C 57.629615 38.782044 50.055591                                                 
C 58.837384 41.115921 42.516453                                                 
C 60.314509 38.885392 50.117385                                                 
C 45.521177 46.057215 30.544887                                                 
C 45.413392 45.887026 36.761559                                                 
C 46.870790 48.392410 30.648955                                                 
C 48.108733 45.882853 36.745462                                                 
C 49.569429 43.727714 30.537570                                                 
C 49.456063 43.545914 36.660050                                                 
C 50.922040 46.060522 30.610935                                                 
C 52.145339 43.541110 36.630980                                                 
C 45.388040 45.864050 43.026695                                                 
C 45.438532 45.772351 49.247300                                                 
C 46.741844 48.195830 42.995920                                                 
C 48.137858 45.781306 49.245005                                                 
C 49.424845 43.521129 43.023181                                                 
C 49.498913 43.448679 49.380434                                                 
C 50.779638 45.851990 42.982113                                                 
C 52.192163 43.459242 49.505283                                                 
C 53.633939 41.389471 30.504532                                                 
C 53.496627 41.206637 36.487556                                                 
C 54.971028 43.717387 30.461962                                                 
C 56.185535 41.196658 36.509586                                                 
C 53.451822 41.181057 42.854361                                                 
C 53.547275 41.125358 49.731071                                                 
C 54.804692 43.497895 42.846409                                                 
C 56.260737 41.147460 49.913652                                                 
H 57.229623 34.787691 36.096311                                                 
H 58.700772 37.284999 30.509020                                                 
H 57.320746 34.696434 50.035348                                                 
H 58.478696 37.042633 42.440658                                                 
C 45.530644 41.395232 30.248703                                                 
C 45.418957 41.222330 36.712636                                                 
C 46.871822 43.724039 30.468649                                                 
C 48.109862 41.217201 36.603348                                                 
C 49.562883 39.040616 30.343537                                                 
C 49.456942 38.884424 36.409798                                                 
C 50.920981 41.387843 30.492019                                                 
C 52.156939 38.882951 36.311544                                                 
C 45.377043 41.198945 43.079493                                                 
C 45.467803 41.102891 49.500742                                                 
C 46.728292 43.526430 43.053469                                                 
C 48.164344 41.106013 49.468096                                                 
C 49.397735 38.857403 43.217540                                                 
C 49.530220 38.777703 49.594672                                                 
C 50.764543 41.183757 43.041588                                                 
C 52.213952 38.777489 49.754831                                                 
C 53.618623 36.717672 30.292388                                                 
C 53.528851 36.514654 36.135240                                                 
C 55.009217 39.009094 30.453178                                                 
C 56.187015 36.573137 36.189939                                                 
C 53.434008 36.526021 43.122087                                                 
C 53.595187 36.398302 49.900565                                                 
C 54.799404 38.796123 42.688519                                                 
C 56.272558 36.477666 50.004374                                                 
H 61.249015 37.117410 36.333197                                                 
H 62.719450 39.622067 30.392070                                                 
H 61.361373 37.103964 50.151686                                                 
H 62.535119 39.385394 42.231360                                                 
H 28.285496 61.720634 37.154717                                                 
H 28.173750 61.499784 49.674706                                                 
C 29.406120 60.073534 29.424183                                                 
C 29.275713 59.910986 37.008996                                                 
C 30.691710 62.328174 29.353648                                                 
C 31.955339 59.948778 36.959368                                                 
C 33.400533 57.727587 29.651463                                                 
C 33.276561 57.590824 36.900326                                                 
C 34.735978 60.048377 29.594650                                                 
C 35.982419 57.569118 36.871223                                                 
H 29.664191 64.121250 29.283603                                                 
H 32.319919 64.023922 36.946455                                                 
C 33.385215 62.405750 29.400054                                                 
C 33.340691 62.225843 36.919281                                                 
C 34.744995 64.705594 29.470787                                                 
C 35.996337 62.264266 36.859024                                                 
C 29.295106 59.904972 43.200765                                                 
C 29.200456 59.706386 49.674940                                                 
C 30.566401 62.169409 43.112235                                                 
C 31.893139 59.776772 49.820280                                                 
C 33.286793 57.564575 43.196250                                                 
C 33.243237 57.396719 49.678853                                                 
C 34.604007 59.893401 43.029485                                                 
C 35.955294 57.402139 49.696880                                                 
H 29.532555 63.961214 43.124862                                                 
H 32.235335 63.834646 50.264676                                                 
C 33.249023 62.252104 43.061000                                                 
C 33.261903 62.042349 50.160322                                                 
C 34.601810 64.558596 43.226245                                                 
C 35.926721 62.072130 50.338515                                                 
C 41.469406 57.732004 30.316033                                                 
C 41.381220 57.545528 36.710947                                                 
C 42.810222 60.069510 30.282106                                                 
C 44.081159 57.547691 36.709213                                                 
C 41.357999 57.549606 42.980542                                                 
C 41.347057 57.424777 49.471665                                                 
C 42.701869 59.886034 42.996586                                                 
C 44.044290 57.445060 49.366272                                                 
C 37.445035 60.062943 29.833298                                                 
C 37.341244 59.880573 36.799523                                                 
C 38.779062 62.401732 29.866206                                                 
C 40.039705 59.879665 36.642769                                                 
C 37.316087 59.898894 42.995157                                                 
C 37.298125 59.714374 49.955332                                                 
C 38.654929 62.237364 43.103647                                                 
C 39.991248 59.742909 49.788224                                                 
C 41.472256 53.060312 30.478762                                                 
C 41.366968 52.884947 36.768839                                                 
C 42.819425 55.394373 30.484283                                                 
C 44.066315 52.884877 36.771050                                                 
C 41.364440 52.878043 42.981632                                                 
C 41.358758 52.760370 49.215910                                                 
C 42.707132 55.211485 42.982002                                                 
C 44.059388 52.776063 49.145256                                                 
C 37.439670 55.393857 30.105467                                                 
C 37.319675 55.224100 36.823685                                                 
C 38.786653 57.727591 30.110570                                                 
C 40.015681 55.216571 36.773530                                                 
C 37.333076 55.219635 43.036256                                                 
C 37.301947 55.074526 49.461228                                                 
C 38.668780 57.554378 42.986318                                                 
C 40.002467 55.088181 49.359877                                                 
C 41.406131 67.105999 30.136509                                                 
C 41.439984 66.831973 36.125991                                                 
C 42.833043 69.398395 30.280448                                                 
C 44.091638 66.883069 36.400676                                                 
C 41.345617 66.947927 43.326602                                                 
C 41.307049 66.700603 50.418842                                                 
C 42.771247 69.232154 43.217967                                                 
C 43.963343 66.751468 50.490009                                                 
H 37.727396 68.850644 29.849079                                                 
H 40.414435 68.620692 35.934424                                                 
H 37.645133 68.707598 43.621854                                                 
H 40.265730 68.481212 50.586937                                                 
C 41.459791 62.397064 30.116585                                                 
C 41.410784 62.200229 36.440032                                                 
C 42.803545 64.742098 30.171980                                                 
C 44.092824 62.208995 36.554962                                                 
C 41.358402 62.224056 43.093762                                                 
C 41.334968 62.071010 49.976722                                                 
C 42.720613 64.574145 43.129415                                                 
C 44.010700 62.089644 49.872273                                                 
H 33.699015 66.488184 29.416029                                                 
H 33.556767 66.338515 43.348637                                                 
C 37.410543 64.780771 29.689835                                                 
C 37.376294 64.527823 36.399523                                                 
C 38.764865 67.062348 29.876611                                                 
C 40.057672 64.557006 36.138338                                                 
C 37.268561 64.630184 43.280309                                                 
C 37.299751 64.351078 50.374634                                                 
C 38.665958 66.915305 43.461787                                                 
C 39.956640 64.415380 50.268001                                                 
C 61.697947 41.411447 30.222867                                                 
C 61.511762 41.152534 36.620298                                                 
C 62.993658 43.639996 29.930324                                                 
H 63.578335 41.172089 36.678864                                                 
C 61.703426 46.002318 29.786513                                                 
C 61.512819 45.820498 37.024922                                                 
C 63.014323 48.335140 29.622604                                                 
H 63.577936 45.799160 37.162656                                                 
H 65.060321 43.651826 29.849682                                                 
C 61.524834 41.173351 42.432507                                                 
C 61.600858 41.170982 50.222648                                                 
C 62.862007 43.427690 42.640070                                                 
H 63.666555 41.202159 50.335706                                                 
C 61.610194 45.805070 42.765323                                                 
C 61.575871 45.876178 50.148316                                                 
C 62.928229 48.140088 42.821552                                                 
H 63.641928 45.898032 50.276684                                                 
H 64.927164 43.425849 42.549465                                                 
C 61.798752 55.391119 30.007884                                                 
C 61.540466 55.194819 37.126134                                                 
C 63.060898 57.758181 30.240081                                                 
H 63.604202 55.197199 37.284073                                                 
H 65.140207 53.025383 29.559761                                                 
C 61.616768 55.180989 42.759401                                                 
C 61.562925 55.173762 49.820298                                                 
C 62.896246 57.542802 42.850816                                                 
H 63.629636 55.159395 49.898320                                                 
H 64.995020 52.857829 42.668594                                                 
C 61.764861 50.690453 29.755162                                                 
C 61.553784 50.513188 37.023593                                                 
C 63.080121 53.035914 29.735403                                                 
H 65.073826 48.306229 29.440523                                                 
C 61.650761 50.497417 42.774195                                                 
C 61.543172 50.527406 49.984182                                                 
C 62.928381 52.843221 42.738919                                                 
H 64.993517 48.128954 42.730112                                                 
H 41.805482 71.189439 30.361478                                                 
H 44.428630 70.958784 36.405725                                                 
H 41.749859 71.025997 43.315376                                                 
H 44.305471 70.839161 50.653900                                                 
C 45.475492 69.389818 30.280055                                                 
C 45.476030 69.181256 36.544487                                                 
H 46.513551 71.174689 30.369914                                                 
C 48.056370 69.204227 36.860844                                                 
C 49.555241 67.043997 29.912523                                                 
C 49.472165 66.920690 37.019598                                                 
H 50.593345 68.832789 29.873159                                                 
C 52.148728 66.889939 37.134653                                                 
H 49.077349 70.999079 36.973638                                                 
C 45.389355 69.199740 42.975010                                                 
C 45.359856 69.065227 50.526800                                                 
H 46.434072 70.977003 42.872478                                                 
C 47.966494 69.090555 50.406397                                                 
C 49.448971 66.834170 42.805069                                                 
C 49.385956 66.817520 50.275017                                                 
H 50.483859 68.619028 42.692116                                                 
C 52.067455 66.811424 50.177527                                                 
H 49.001456 70.880031 50.440339                                                 
H 57.275978 66.309763 37.318580                                                 
H 57.197490 66.328970 50.135772                                                 
H 53.167928 68.686127 37.226767                                                 
H 53.063570 68.621186 50.274342                                                 
C 57.639457 62.398534 30.002431                                                 
C 57.590001 62.226086 37.207996                                                 
H 58.668608 64.191463 29.934288                                                 
C 60.277406 62.141549 37.146913                                                 
C 57.507797 62.111770 42.894914                                                 
C 57.569455 62.245694 49.669569                                                 
H 58.556627 63.907565 42.821750                                                 
C 60.248686 62.163341 49.432574                                                 
C 53.587031 64.702521 29.837059                                                 
C 53.552357 64.606914 37.151519                                                 
C 56.227989 64.531048 37.211481                                                 
C 53.472145 64.475900 42.906377                                                 
C 53.483136 64.556715 50.030658                                                 
C 56.172300 64.532580 50.022586                                                 
C 61.715460 60.048336 30.366621                                                 
C 61.550857 59.878564 37.064023                                                 
H 62.742535 61.833405 30.520339                                                 
H 63.617286 59.851043 37.044264                                                 
H 65.127105 57.771855 30.305702                                                 
H 61.314411 63.931200 37.192526                                                 
C 61.571628 59.776054 42.978980                                                 
C 61.567951 59.859509 49.378417                                                 
H 62.578924 61.579429 43.020090                                                 
H 63.630424 59.842592 49.253371                                                 
H 64.965948 57.544301 42.758030                                                 
H 61.295572 63.945859 49.345776                                                 
H 63.608757 50.533888 50.097959                                                 
H 36.403069 34.664657 50.435897                                                 
H 36.266910 66.137264 50.536546                                                 
H 27.214891 50.596343 43.145230                                                 
H 54.519797 66.251884 42.666905                                                 
H 63.598827 50.505824 37.346372                                                 
H 54.462368 34.731079 43.138122                                                 
H 36.311670 34.772017 37.117490                                                 
H 36.348618 66.321320 36.289923                                                 
H 54.618902 66.493925 29.731315                                                 
H 27.324804 50.735753 29.506403                                                 
H 54.648901 34.927166 30.284651                                                 
Li 32.025900 41.457899 26.406163                                                
Li 30.470322 47.871556 33.314578                                                
Li 59.041790 59.881463 52.798998                                                
Li 35.949185 38.593409 33.203097                                                
Li 60.452223 57.950688 26.945959                                                
Li 42.520229 36.260571 33.457698                                                
Li 30.437017 57.313961 52.963336                                                
Li 35.816244 62.201741 46.527736                                                
Li 46.953010 33.995407 52.932274                                                
Li 30.197018 48.049278 46.557488                                                
Li 52.400508 39.086616 27.094479                                                
Li 35.698072 38.759951 46.561968                                                
Li 44.135812 67.212946 26.897301                                                
Li 35.597084 62.512928 33.041744                                                
Li 30.480852 53.349844 33.203965                                                
Li 40.241355 36.137261 46.393034                                                
Li 55.173373 38.545099 46.486703                                                
Li 60.539706 48.046064 46.300707                                                
Li 44.323508 66.945958 46.562399                                                
Li 50.610627 64.950512 46.584029                                                
Li 50.849316 64.967803 33.600190                                                
Li 39.791221 65.154832 39.874342                                                
Li 60.520921 53.169015 46.193428                                                
Li 51.008735 36.238271 39.624763                                                
Li 30.850241 42.112141 46.573032                                                
Li 60.872131 48.052287 33.342392                                                
Li 55.390440 62.276022 33.685370                                                
Li 61.154355 53.118451 33.410731                                                
Li 60.202528 42.489973 46.236996                                                
Li 29.112949 53.107206 40.002908                                                
Li 55.801841 63.960132 46.192370                                                
Li 56.490960 37.743960 39.493680                                                
Li 30.245160 60.240360 33.244680                                                
%ENDBLOCK POSITIONS_ABS                                                         

--------------------------------------------------------------------------------
-------------------------------- END INPUT FILE --------------------------------
--------------------------------------------------------------------------------


 
<<<<<<<<<<<<<<<<<<<<<<<<<<<<<<<<< Full system >>>>>>>>>>>>>>>>>>>>>>>>>>>>>>>>>>
<<<<<<<<<<<<<<<<<<<<<<<<<<< PAW Dataset information >>>>>>>>>>>>>>>>>>>>>>>>>>>
File: ~/pp/paw/c_pbe_abinit.paw; rc = 1.25 bohr; shape type =  3; rshape = 1.25 bohr;
  Atomic number:  6;  ionic charge:  4.000000
    Partial Wave 1: l = 0
    Partial Wave 2: l = 0
    Partial Wave 3: l = 1
    Partial Wave 4: l = 1
  Core charge supplied for Nonlinear Core Corrections
File: ~/pp/paw/h_pbe_abinit.paw; rc = 0.90 bohr; shape type =  3; rshape = 0.90 bohr;
  Atomic number:  1;  ionic charge:  1.000000
    Partial Wave 1: l = 0
    Partial Wave 2: l = 0
File: ~/pp/paw/li_pbe_abinit.paw; rc = 1.42 bohr; shape type =  3; rshape = 1.42 bohr;
  Atomic number:  3;  ionic charge:  3.000000
    Partial Wave 1: l = 0
    Partial Wave 2: l = 0
    Partial Wave 3: l = 0
    Partial Wave 4: l = 1
    Partial Wave 5: l = 1
<<<<<<<<<<<<<<<<<<<<<<<<<<<<<<<<<<<<<<< >>>>>>>>>>>>>>>>>>>>>>>>>>>>>>>>>>>>>>>

-------------------------- Atom counting information ---------------------------
Symbol    Natoms    Nngwfs    Nprojs
  C        484      1936      3872
  H        108       108       216
  Li        33       165       297
.......   ......    ......    ......
Totals:    625      2209      4385
--------------------------------------------------------------------------------

=============================== PSINC grid sizes ===============================
                      Simulation cell:  189 x 189 x 189
                              FFT-box:  117 x 117 x 117
                                  PPD:    7 x   7 x   1
Grid space d1=  0.499927596032a0 (KE cutoff=  30.39413Eh = 827.06648eV)
Grid space d2=  0.499927596032a0 (KE cutoff=  30.39413Eh = 827.06648eV)
Grid space d3=  0.499927596032a0 (KE cutoff=  30.39413Eh = 827.06648eV)
================================================================================
  
WARNING in cell_grid_distribute:
Average of less than one 23-slab per node, so workload cannot be
equally balanced between nodes.

********************* Fourier parallelisation information **********************
       Coarse grid (whole simulation cell) dimensions:    189   189   189
          Real-space ('12') slabs/node (min max mean):      1     2     1
         Recip-space ('23') slabs/node (min max mean):      0     1     0
********************************************************************************

********************* Fourier parallelisation information **********************
       Double grid (whole simulation cell) dimensions:    378   378   378
          Real-space ('12') slabs/node (min max mean):      2     3     2
         Recip-space ('23') slabs/node (min max mean):      1     2     1
********************************************************************************

Atom SCF Calculation for C  : Z (AE atom) =   6 : Z (PS atom) =   4
Config String: 2s2 2p2
Orbitals (num,occ):  2     2.00 2.00
Orbitals   (num,l):  2        0    1
Real-space Grid (nr,dr,rmax): 1377    0.0065406977    9.0000000000
Spherical Bessel Basis (nsws,lmax,cutoff):   37    2  183.0099912382
Confining potential (l,width,scale):  0    3.0000000000  100.0000000000
Confining potential (l,width,scale):  1    3.0000000000  100.0000000000
  1         -5.4350126632   -1.2715272878    4.5135247139   -1.5681949477
  2         -5.3876836850   -1.3562195125    4.4235426751   -1.5380057521
  3         -5.3928844498   -1.3758175853    4.4021699684   -1.5318377811
  4         -5.3988962903   -1.3800385428    4.3975423583   -1.5307324410
  5         -5.4018428823   -1.3823489590    4.3950111904   -1.5301555648
  6         -5.4033571720   -1.3835805046    4.3936635548   -1.5298576834
  7         -5.4041480647   -1.3842324820    4.3929512000   -1.5297032953
  8         -5.4045641108   -1.3845769138    4.3925755232   -1.5296229456
  9         -5.4047838258   -1.3847587737    4.3923775340   -1.5295810042
 10         -5.4049001347   -1.3848548089    4.3922731819   -1.5295590658
 11         -5.4049618018   -1.3849055476    4.3922181562   -1.5295475724
 12         -5.4049945351   -1.3849323732    4.3921891206   -1.5295415432
 13         -5.4050119258   -1.3849465673    4.3921737867   -1.5295383767
 14         -5.4050211723   -1.3849540841    4.3921656816   -1.5295367119
 15         -5.4050260920   -1.3849580684    4.3921613935   -1.5295358358
 16         -5.4050287113   -1.3849601822    4.3921591228   -1.5295353742
 17         -5.4050301068   -1.3849613045    4.3921579192   -1.5295351307
 18         -5.4050308507   -1.3849619010    4.3921572806   -1.5295350022
 19         -5.4050312476   -1.3849622183    4.3921569415   -1.5295349343
 20         -5.4050314594   -1.3849623873    4.3921567612   -1.5295348984
 21         -5.4050315725   -1.3849624773    4.3921566653   -1.5295348794
 22         -5.4050316330   -1.3849625253    4.3921566143   -1.5295348693
Atom SCF converged after  22 iterations to a total energy of     -5.40503163

Atom SCF Calculation for H  : Z (AE atom) =   1 : Z (PS atom) =   1
Config String: 1s1
Orbitals (num,occ):  1     1.00
Orbitals   (num,l):  1        0
Real-space Grid (nr,dr,rmax): 1377    0.0065406977    9.0000000000
Spherical Bessel Basis (nsws,lmax,cutoff):   37    1  183.0099912382
Confining potential (l,width,scale):  0    3.0000000000  100.0000000000
  1         -0.3605254152   -0.2399954029    0.2820952946   -0.2424203210
  2         -0.4156854077   -0.2398249290    0.2871789324   -0.2464796203
  3         -0.4412552402   -0.2379720642    0.2899127187   -0.2499011370
  4         -0.4517265951   -0.2371980236    0.2908966173   -0.2514141636
  5         -0.4557775773   -0.2369735141    0.2911607883   -0.2519713623
  6         -0.4573363459   -0.2369240355    0.2912108681   -0.2521663171
  7         -0.4579443228   -0.2369187864    0.2912112833   -0.2522344454
  8         -0.4581858602   -0.2369215483    0.2912049187   -0.2522587615
  9         -0.4582834939   -0.2369242589    0.2912002081   -0.2522677042
 10         -0.4583235236   -0.2369258837    0.2911975892   -0.2522710965
 11         -0.4583401154   -0.2369267223    0.2911962825   -0.2522724192
 12         -0.4583470483   -0.2369271266    0.2911956643   -0.2522729467
 13         -0.4583499624   -0.2369273145    0.2911953803   -0.2522731607
 14         -0.4583511926   -0.2369274000    0.2911952521   -0.2522732486
 15         -0.4583517136   -0.2369274385    0.2911951948   -0.2522732850
 16         -0.4583519349   -0.2369274556    0.2911951693   -0.2522733002
 17         -0.4583520290   -0.2369274632    0.2911951581   -0.2522733066
Atom SCF converged after  17 iterations to a total energy of     -0.45835203

Atom SCF Calculation for Li : Z (AE atom) =   3 : Z (PS atom) =   3
Config String: 1s2 2s1 2p0
Orbitals (num,occ):  3     2.00 1.00 0.00
Orbitals   (num,l):  3        0    0    1
Real-space Grid (nr,dr,rmax): 1377    0.0065406977    9.0000000000
Spherical Bessel Basis (nsws,lmax,cutoff):   37    2  183.0099912382
Confining potential (l,width,scale):  0    3.0000000000  100.0000000000
Confining potential (l,width,scale):  1    3.0000000000  100.0000000000
  1         -6.0640888065   -4.6655401716    2.5388576516   -0.9989538799
  2         -6.9627542978   -4.0954079129    2.9808988108   -1.1965571426
  3         -7.2692687601   -3.8889996707    3.2029735703   -1.3193883705
  4         -7.3784440298   -3.8322099748    3.2868571989   -1.3711018151
  5         -7.4170278248   -3.8191968371    3.3144974220   -1.3911175539
  6         -7.4303549880   -3.8172386945    3.3228486489   -1.3986896266
  7         -7.4348052089   -3.8175483495    3.3251259310   -1.4015352495
  8         -7.4362242328   -3.8180607346    3.3256233205   -1.4026016384
  9         -7.4366459715   -3.8184145665    3.3256561549   -1.4029998726
 10         -7.4367560626   -3.8186169740    3.3256001574   -1.4031477379
 11         -7.4367765260   -3.8187239825    3.3255481763   -1.4032021548
 12         -7.4367751741   -3.8187782620    3.3255144587   -1.4032219192
 13         -7.4367707398   -3.8188051288    3.3254952336   -1.4032289600
 14         -7.4367680349   -3.8188156035    3.3254870176   -1.4032309087
 15         -7.4367661982   -3.8188217406    3.3254819951   -1.4032318132
 16         -7.4367650112   -3.8188253257    3.3254789583   -1.4032322224
 17         -7.4367642682   -3.8188274151    3.3254771375   -1.4032324006
 18         -7.4367638134   -3.8188286307    3.3254760529   -1.4032324736
 19         -7.4367635392   -3.8188293370    3.3254754103   -1.4032325004
 20         -7.4367633760   -3.8188297469    3.3254750310   -1.4032325080
 21         -7.4367632796   -3.8188299846    3.3254748079   -1.4032325082
Atom SCF converged after  21 iterations to a total energy of     -7.43676328

================================================================================
<<<<<<<<<<<<<<<< Resuming previous ONETEP Geometry Optimisation >>>>>>>>>>>>>>>>
================================================================================

 Geometry Optimisation: output file is "592nano.geom"
 
 Geometry Optimisation: write_hamiltonian parameter over-ridden to T
 Reading continuation file "592nano.continuation" ...done
 Geometry Optimisation: read_tightbox_ngwfs parameter over-ridden to TRUE
 Geometry Optimisation: read_hamiltonian parameter over-ridden to T
 
                           -------------------------------
                                     Cell Contents
                           -------------------------------
 
            xxxxxxxxxxxxxxxxxxxxxxxxxxxxxxxxxxxxxxxxxxxxxxxxxxxxxxxxxxxx
            x  Element    Atom      Absolute co-ordinates of atoms     x
            x            Number        x           y           z       x
            x----------------------------------------------------------x
            x    C         1       45.521637   50.727034   30.643789   x
            x    C         2       45.411090   50.548384   36.784689   x
            x    C         3       46.874403   53.064581   30.641493   x
            x    C         4       48.107152   50.542480   36.792249   x
            x    C         5       49.574945   48.395038   30.655632   x
            x    C         6       49.454090   48.202814   36.776187   x
            x    C         7       50.930356   50.728455   30.651551   x
            x    C         8       52.150895   48.193481   36.794516   x
            x    C         9       45.519908   55.398367   30.558437   x
            x    C        10       45.420405   55.210947   36.760560   x
            x    C        11       46.871703   57.731949   30.457694   x
            x    C        12       48.116953   55.208584   36.785743   x
            x    C        13       49.576029   53.066642   30.641692   x
            x    C        14       49.457687   52.875437   36.807802   x
            x    C        15       50.925840   55.398135   30.534555   x
            x    C        16       52.155762   52.873073   36.844216   x
            x    C        17       45.398373   50.530929   42.986531   x
            x    C        18       45.421901   50.447016   49.121936   x
            x    C        19       46.749332   52.863666   42.984642   x
            x    C        20       48.122296   50.460224   49.130801   x
            x    C        21       49.440795   48.184802   42.997344   x
            x    C        22       49.482197   48.128805   49.205737   x
            x    C        23       50.792741   50.520648   43.004504   x
            x    C        24       52.178911   48.142497   49.332880   x
            x    C        25       45.406744   55.199738   42.977240   x
            x    C        26       45.402303   55.121417   49.195555   x
            x    C        27       46.752101   57.534042   42.971449   x
            x    C        28       48.101690   55.140832   49.182734   x
            x    C        29       49.445841   52.855808   42.995588   x
            x    C        30       49.460020   52.806391   49.150436   x
            x    C        31       50.796964   55.186788   42.987771   x
            x    C        32       52.153675   52.822620   49.257447   x
            x    C        33       57.668337   48.371003   30.200466   x
            x    C        34       57.525174   48.170314   36.971044   x
            x    C        35       59.026588   50.693324   30.083145   x
            x    C        36       60.253315   48.160175   37.145857   x
            x    C        37       57.539621   48.175098   42.925171   x
            x    C        38       57.537580   48.173528   49.874640   x
            x    C        39       58.894883   50.524180   42.886597   x
            x    C        40       60.262692   48.189492   50.179917   x
            x    C        41       53.629329   50.724038   30.559418   x
            x    C        42       53.498823   50.530679   36.847671   x
            x    C        43       54.984879   53.060509   30.467039   x
            x    C        44       56.190719   50.522646   36.936243   x
            x    C        45       53.492149   50.520296   43.003033   x
            x    C        46       53.511473   50.489272   49.371480   x
            x    C        47       54.839781   52.853077   42.985073   x
            x    C        48       56.202557   50.504205   49.641382   x
            x    C        49       57.661238   43.697602   30.274834   x
            x    C        50       57.539925   43.503554   36.640938   x
            x    C        51       59.001130   46.006620   30.047364   x
            x    C        52       60.239859   43.514017   36.743504   x
            x    C        53       57.530703   43.511898   42.805638   x
            x    C        54       57.584963   43.496261   49.955874   x
            x    C        55       58.893921   45.823859   42.839369   x
            x    C        56       60.299457   43.528093   50.198417   x
            x    C        57       53.621232   46.057406   30.526968   x
            x    C        58       53.494421   45.859211   36.748972   x
            x    C        59       54.970705   48.384565   30.466791   x
            x    C        60       56.191593   45.849209   36.805578   x
            x    C        61       53.485786   45.849987   42.966224   x
            x    C        62       53.533704   45.808926   49.506672   x
            x    C        63       54.839496   48.181324   42.977983   x
            x    C        64       56.220158   45.830081   49.762963   x
            x    C        65       57.679065   57.734219   30.236518   x
            x    C        66       57.557686   57.536149   37.018217   x
            x    C        67       59.033173   60.123521   30.207959   x
            x    C        68       60.254905   57.526329   37.044266   x
            x    C        69       57.542786   57.519839   42.937499   x
            x    C        70       57.536433   57.531318   49.502831   x
            x    C        71       58.894231   59.850414   42.966494   x
            x    C        72       60.280825   57.515382   49.558260   x
            x    C        73       45.502396   64.739193   30.172999   x
            x    C        74       45.442232   64.554749   36.591640   x
            x    C        75       46.886337   67.102069   30.126019   x
            x    C        76       48.111036   64.565560   36.860492   x
            x    C        77       49.549518   62.386040   30.014370   x
            x    C        78       49.472768   62.214610   36.882748   x
            x    C        79       50.907590   64.757025   29.741127   x
            x    C        80       52.173791   62.217641   36.991355   x
            x    C        81       45.418221   64.553469   42.983562   x
            x    C        82       45.352110   64.426977   50.173962   x
            x    C        83       46.793246   66.902580   42.914439   x
            x    C        84       48.037046   64.465951   50.101523   x
            x    C        85       49.449123   62.191096   42.855540   x
            x    C        86       49.420622   62.145458   49.789223   x
            x    C        87       50.811609   64.558330   42.717754   x
            x    C        88       52.117003   62.177029   49.767278   x
            x    C        89       53.613808   60.052483   30.077064   x
            x    C        90       53.515070   59.874259   36.982920   x
            x    C        91       54.978020   62.419275   29.802857   x
            x    C        92       56.230212   59.864221   37.078486   x
            x    C        93       53.495434   59.827875   42.889641   x
            x    C        94       53.477637   59.853847   49.531108   x
            x    C        95       54.861953   62.175228   42.783109   x
            x    C        96       56.185575   59.868967   49.548774   x
            x    C        97       57.682014   53.048785   30.254161   x
            x    C        98       57.529241   52.869428   37.022594   x
            x    C        99       59.036279   55.396578   30.161912   x
            x    C       100       60.256166   52.869529   37.191677   x
            x    C       101       57.543363   52.852047   42.900193   x
            x    C       102       57.526867   52.856511   49.726541   x
            x    C       103       58.893695   55.205428   42.848637   x
            x    C       104       60.252483   52.871542   50.026814   x
            x    C       105       45.511533   60.067087   30.330717   x
[...]
 C    39 -- C   506       -0.07      0.00      5.43202
 C   220 -- C   238       -0.08      0.00      5.43236
 C   343 -- C   506       -0.08     -0.00      5.43243
 C    77 -- C    91       -0.08     -0.00      5.43418
 C   343 -- C   365       -0.08      0.00      5.43595
 C    34 -- C   100       -0.08      0.00      5.43618
 C   224 -- C   242       -0.08     -0.00      5.43664
 C    96 -- C   567       -0.08      0.00      5.43685
 C   364 -- C   390       -0.08      0.00      5.43751
 C    79 -- C    89       -0.08     -0.00      5.43805
 C    56 -- C   342       -0.09     -0.00      5.43869
 C    36 -- C    98       -0.08      0.00      5.43926
 C    55 -- C   525       -0.07      0.00      5.43947
 C   233 -- C   239       -0.08      0.00      5.43961
 C   413 -- C   441       -0.07      0.00      5.44068
 C   423 -- C   489       -0.08      0.00      5.44113
 C   440 -- C   488       -0.08      0.00      5.44157
 C    87 -- C    93       -0.08     -0.00      5.44193
 C    88 -- C   560       -0.07      0.00      5.44396
 C   103 -- C   525       -0.08      0.00      5.44437
 C    84 -- C   567       -0.08      0.00      5.44463
 C   252 -- C   406       -0.09     -0.00      5.44475
 C    92 -- C   564       -0.08      0.00      5.44485
 C   316 -- C   390       -0.07      0.00      5.44515
 C    51 -- C   521       -0.08      0.00      5.44530
 C    76 -- C   564       -0.07      0.00      5.44538
 C   185 -- C   235       -0.07      0.00      5.44591
 C   377 -- C   391       -0.07      0.00      5.44615
 C   319 -- C   361       -0.07      0.00      5.44695
 C   183 -- C   237       -0.07      0.00      5.44705
 C   253 -- C   413       -0.08     -0.00      5.44711
 C   409 -- C   485       -0.07      0.00      5.44829
 C   206 -- C   292       -0.07      0.00      5.44889
 C   201 -- C   239       -0.07      0.00      5.45159
 C   197 -- C   199       -0.08     -0.00      5.45184
 C   198 -- C   204       -0.08     -0.00      5.45323
 C   368 -- C   394       -0.07      0.00      5.45367
 C    83 -- C   467       -0.08     -0.00      5.45502
 C    35 -- C   511       -0.07      0.00      5.45510
 C   481 -- C   489       -0.07      0.00      5.45534
 H   505 -- Li  621       -0.02     -0.00      5.45677
 C   190 -- C   284       -0.07      0.00      5.45878
 C    99 -- C   521       -0.07      0.00      5.45972
 C    72 -- C   560       -0.08     -0.00      5.46306
 C   181 -- Li  594       -0.09     -0.00      5.46321
 C   234 -- C   332       -0.08     -0.00      5.46980
 C   260 -- C   420       -0.08     -0.00      5.47339
 C    75 -- C   463       -0.08     -0.00      5.47421
 H   141 -- Li  596       -0.02     -0.00      5.47618
 C   333 -- C   365       -0.07      0.00      5.47675
 H   174 -- Li  607       -0.03     -0.00      5.47702
 H   588 -- Li  596       -0.03     -0.00      5.47928
 C    67 -- Li  619       -0.09     -0.00      5.48127
 C    72 -- Li  615       -0.08     -0.00      5.48198
 C   181 -- C   183       -0.08     -0.00      5.48273
 C   252 -- C   286       -0.06      0.00      5.48419
 C    67 -- C   511       -0.08     -0.00      5.48697
 H   131 -- Li  617       -0.02      0.00      5.49481
 H   581 -- Li  610       -0.02     -0.00      5.49660
 H   326 -- Li  616       -0.02      0.00      5.49780
 C   254 -- C   284       -0.06      0.00      5.49781
 H   509 -- Li  610       -0.02     -0.00      5.50949
 C   234 -- Li  608       -0.08     -0.00      5.52408
 H   591 -- Li  607       -0.02      0.00      5.53149
 H   400 -- Li  621       -0.02      0.00      5.54816
 H   371 -- Li  609       -0.02      0.00      5.56234
 C   368 -- Li  621       -0.04     -0.00      5.56971
 H   132 -- Li  617       -0.02      0.00      5.57112
 Li  610 -- Li  621       -0.12     -0.00      5.57883
 C   340 -- Li  624       -0.07      0.00      5.59723
 H   146 -- Li  604       -0.02     -0.00      5.60036
 C   365 -- Li  624       -0.04      0.00      5.60245
 H   590 -- Li  613       -0.02      0.00      5.61478
 H   515 -- Li  620       -0.02      0.00      5.61549
 C   343 -- Li  624       -0.08     -0.00      5.62191
 H   583 -- Li  600       -0.02     -0.00      5.62384
 H   159 -- Li  602       -0.02     -0.00      5.62591
 H   532 -- Li  611       -0.02      0.00      5.63868
 C   337 -- C   338       -0.03      0.00      5.63872
 C   512 -- C   516       -0.04      0.00      5.64784
 C   416 -- Li  614       -0.06     -0.00      5.64956
 H   473 -- Li  614       -0.01      0.00      5.64979
 C   488 -- Li  606       -0.05      0.00      5.65101
 Li  606 -- Li  625       -0.08     -0.00      5.65249
 C   203 -- Li  617       -0.05     -0.00      5.65743
 H   173 -- Li  607       -0.02      0.00      5.65788
 C    83 -- Li  612       -0.04     -0.00      5.66403
 C   341 -- Li  621       -0.07     -0.00      5.66528
 C    75 -- Li  613       -0.07     -0.00      5.66882
=============================================================


============== Orbital energy and occupancy information for spin 1 =============

      Total number of orbitals:    2209
        Occupancy sum (kernel):    1071.999999999
   Occupancy sum (eigenvalues):    1071.999999999
                 HOMO-LUMO gap:       0.003266049 Eh
                 Mid-gap level:      -0.067512984 Eh

                        Orbital | Energy (Eh) | Occupancy
                            1    -1.883539802   1.0000000
                        .......   ...........   .........
                         1063    -0.088451722   0.9983995
                         1064    -0.085787961   0.9962961
                         1065    -0.085242407   0.9956025
                         1066    -0.084033612   0.9935718
                         1067    -0.081508641   0.9858431
                         1068    -0.079119973   0.9703726
                         1069    -0.075020675   0.8997583
                         1070    -0.071016872   0.7171460
                         1071    -0.069807873   0.6338010
                         1072    -0.069146008   0.5840631
                        ....... -- gap at 0K -- .........
                         1073    -0.065879960   0.3336231
                         1074    -0.065147424   0.2843147
                         1075    -0.063587477   0.1953421
                         1076    -0.062435387   0.1443618
                         1077    -0.061925830   0.1255958
                         1078    -0.059995618   0.0724260
                         1079    -0.057528981   0.0345938
                         1080    -0.054154375   0.0121941
                         1081    -0.053442974   0.0097648
                         1082    -0.050182077   0.0035093
                        .......   ...........   .........
                         2209     0.786396654   0.0000000

================================================================================

============== Orbital energy and occupancy information for spin 2 =============

      Total number of orbitals:    2209
        Occupancy sum (kernel):    1071.000000000
   Occupancy sum (eigenvalues):    1071.000000000
                 HOMO-LUMO gap:       0.003317405 Eh
                 Mid-gap level:      -0.067113318 Eh

                        Orbital | Energy (Eh) | Occupancy
                            1    -1.883535659   1.0000000
                        .......   ...........   .........
                         1063    -0.088089029   0.9971848
                         1064    -0.085401930   0.9934475
                         1065    -0.084884063   0.9922917
                         1066    -0.083716310   0.9888927
                         1067    -0.081237460   0.9760190
                         1068    -0.078850618   0.9503811
                         1069    -0.074733285   0.8392094
                         1070    -0.070475271   0.5763698
                         1071    -0.069267100   0.4815989
                         1072    -0.068772021   0.4427400
                        ....... -- gap at 0K -- .........
                         1073    -0.065454615   0.2179594
                         1074    -0.064745223   0.1821880
                         1075    -0.063136696   0.1182127
                         1076    -0.062035722   0.0864979
                         1077    -0.061549307   0.0751039
                         1078    -0.059729667   0.0437127
                         1079    -0.057209713   0.0202110
                         1080    -0.053919212   0.0072446
                         1081    -0.053236375   0.0058477
                         1082    -0.049860403   0.0020216
                        .......   ...........   .........
                         2209     0.786426908   0.0000000

================================================================================

===================== Writing canonical molecular orbitals =====================
    Spin 1
| Orbital  Energy (eV)  Norm     |
| HOMO     -1.88155862  1.000000 | Writing "592nano_HOMO_UP.cube" ... done
Writing "592nano_HOMO_UP.dx" ... done
| LUMO     -1.79268492  1.000000 | Writing "592nano_LUMO_UP.cube" ... done
Writing "592nano_LUMO_UP.dx" ... done
================================================================================

===================== Writing canonical molecular orbitals =====================
    Spin 2
| Orbital  Energy (eV)  Norm     |
| HOMO     -1.87138190  1.000000 | Writing "592nano_HOMO_DN.cube" ... done
Writing "592nano_HOMO_DN.dx" ... done
| LUMO     -1.78111071  1.000000 | Writing "592nano_LUMO_DN.cube" ... done
Writing "592nano_LUMO_DN.dx" ... done
================================================================================

================== Local Density of States (LDOS) calculation ==================
Writing "592nano_UP_LDOS.txt" ...  done
================================================================================

================== Local Density of States (LDOS) calculation ==================
Writing "592nano_DN_LDOS.txt" ...  done
================================================================================
 
=============== Density of States (DOS) calculation for UP spin ================
Writing "592nano_UP_DOS.txt" ...  done
================================================================================
 
============== Density of States (DOS) calculation for DOWN spin ===============
Writing "592nano_DN_DOS.txt" ...  done
================================================================================
 
Writing bands to file "592nano.val_bands" ... done
 
================ Projected Density of States (pDOS) calculation ================
 
Constructing AM resolved functions  ...... done
Writing NGWF plot files in formats: CUBE DX ...  done
 
Performing overlap integrals ...  done
 
Computing pDOS weights ...  done
 
All bands spilling parameter =   3.35 %
Occupancy-weighted spilling parameter =   0.87 %
 
 => Outputting data for OptaDOS <=
 
Writing pDOS weights to file "592nano.val_pdos_bin" ... done
 
Writing band gradients to file "592nano.val_dome_bin" ... done
 
Writing Castep output cell file to "592nano-out.cell" ... done
 
 => Computing Gaussian smeared pDOS for UP spin<= 
Writing "592nano_UP_PDOS.txt" ...  done
 
 => Computing Gaussian smeared pDOS for DOWN spin<= 
Writing "592nano_DN_PDOS.txt" ...  done
 
 => Computing Occupancy-weighted Gaussian smeared pDOS for UP spin<= 
Writing "592nano_occ_UP_PDOS.txt" ...  done
  => Band centres for UP spin channel: 
 S band centre of group 1:  -17.877238 eV
 P band centre of group 1:   -8.123368 eV
  Band centres for UP spin channel done. <= 
  => Integrated number of electrons in each AM band for UP spin channel: 
 S num electrons of group 1:  298.134110
 P num electrons of group 1:  764.570111
  Integrated number of electrons for UP spin channel done. <= 
 
 => Computing Occupancy-weighted Gaussian smeared pDOS for DOWN spin<= 
Writing "592nano_occ_DN_PDOS.txt" ...  done
  => Band centres for DOWN spin channel: 
 S band centre of group 1:  -17.875243 eV
 P band centre of group 1:   -8.130916 eV
  Band centres for DOWN spin channel done. <=
  => Integrated number of electrons in each AM band for DOWN spin channel: 
 S num electrons of group 1:  298.120760
 P num electrons of group 1:  763.598715
  Integrated number of electrons for DOWN spin channel done. <=
================================================================================

================================= Core Density =================================
               Core den box size:   21 x  21 x  21
================================================================================
======================= Empirical dispersion information =======================
Model : Grimme D2
================================================================================

------------------------------ TIMING INFORMATION ------------------------------
AVERAGE TIME:    8680.389s on    150 node(s)                                    
TOTAL TIME:      8680.390s on    150 node(s)                                    
================= AVERAGE TIMINGS FROM ALL NODES (CUMULATIVE) ==================
|| TAG                                    #calls    cpu time   %total  Gflops ||
|| linalg_invert_sym_matrix             :     4        0.00s   0.000%  ------ || (1 nodes only)
|| work_imbalance                       :     1        0.00s   0.000%  ------ ||
|| sparse_set_to_garbage                :   138        0.01s   0.000%  ------ ||
|| ewald_calculate_forces_realspace     :     4        0.01s   0.000%  ------ ||
|| paw_sphere_density_on_grid           :     1        0.01s   0.000%  ------ ||
|| paw_dij_hartree                      :   375        0.01s   0.000%  ------ ||
|| ngwfs_initialise_from_radial         :     1        0.02s   0.000%  ------ ||
|| basis_extract_function_from_box      :   353        0.03s   0.000%  ------ ||
|| paw_tcore_density                    :     4        0.03s   0.000%  ------ ||
|| augmentation_density_forces          :     4        0.33s   0.004%  ------ ||
|| paw_dataset_init                     :     3        0.47s   0.005%  ------ ||
|| paw_tcore_hartree_on_grid            :     4        0.49s   0.006%  ------ ||
|| ewald_calculate_energy               :     4        0.58s   0.007%  ------ ||
|| restart_hamiltonian_write            :    14        0.66s   0.008%  ------ ||
|| restart_hamiltonian_read             :     4        0.92s   0.011%  ------ ||
|| density_init_guess_real              :     4        0.97s   0.011%  ------ ||
|| dense_normal_eigensolve              :     1        1.00s   0.012%  ------ ||
|| ewald_calculate_forces_recipspace    :     4        1.24s   0.014%  ------ ||
|| restart_kernel_write                 :    14        1.26s   0.015%  ------ ||
|| ewald_calculate_forces               :     4        1.28s   0.015%  ------ ||
|| paw_nlcc_calculate_forces            :     4        1.49s   0.017%  ------ ||
|| pseudo_make_structure_factor         :     4        2.14s   0.025%  ------ ||
|| integrals_grad                       :     4        3.29s   0.038%  ------ ||
|| nonsc_forces_ngwfs_calc              :     4        3.29s   0.038%  ------ ||
|| sparse_init                          :     4        3.33s   0.038%  ------ ||
|| restart_ngwfs_tightbox_input         :     4        3.93s   0.045%  ------ ||
|| paw_tcore_hartree_calc_forces        :     4        4.40s   0.051%  ------ ||
|| ngwf_gradient_coeffs                 :    10        4.71s   0.054%  ------ ||
|| augmentation_screen_dij              :   288        5.76s   0.066%  ------ ||
|| sparse_embed_hotelling_invert_embed  :    18        6.11s   0.070%  ------ ||
|| sw_init                              :     1        7.53s   0.087%  ------ ||
|| paw_species_calc_proj_prec_mat       :     4        8.77s   0.101%  ------ ||
|| fourier_apply_box_pair               :   755        8.83s   0.102%  2.119k ||
|| hartree_on_grid                      :   281       13.29s   0.153%  ------ ||
|| basis_copy_function_to_box           : 11634       15.40s   0.177%  ------ ||
|| paw_dij_xc                           :   375       19.47s   0.224%  ------ ||
|| projectors_func_grad_ovlp_box        :    12       20.24s   0.233%  ------ ||
|| function_ops_brappd_ketppd           :    35       22.85s   0.263%  ------ ||
|| aug_nl_calculate_forces              :     4       24.15s   0.278%  ------ ||
|| integrals_kinetic                    :    18       25.68s   0.296%  ------ ||
|| projectors_init_fftbox_recip         :    75       27.51s   0.317%  ------ ||
|| projectors_func_ovlp_box             :    19       28.90s   0.333%  ------ ||
|| augmentation_density_on_grid         :   282       42.42s   0.489%  ------ ||
|| fourier_apply_cell_forward           :  2557       46.42s   0.535% 191.738 ||
|| fourier_apply_cell_backward          :  2557       47.76s   0.550% 186.348 ||
|| sparse_trace                         :  6814       49.68s   0.572%  ------ ||
|| aug_nonlocal_mat                     :   361       58.25s   0.671%  ------ ||
|| basis_dot_function_with_box          : 2.664M      74.59s   0.859%  ------ ||
|| restart_ngwfs_tightbox_output        :     8       85.52s   0.985%  ------ ||
|| eigenstates_pdos                     :     1       95.60s   1.101%  ------ ||
|| xc_energy_potential                  :   284       97.33s   1.121%  ------ ||
|| forces_calculate                     :     4      109.36s   1.260%  ------ ||
|| hamiltonian_energy_components        :     4      109.57s   1.262%  ------ ||
|| dense_eigensolve                     :   508      153.78s   1.772%  ------ ||
|| sparse_product                       :  6602      186.04s   2.143%  ------ ||
|| eigenstates_calculate                :     1      196.34s   2.262%  ------ ||
|| basis_add_function_to_box            : 7.856M     263.71s   3.038%  ------ ||
|| cell_grid_deposit_box_real           : 21006      274.41s   3.161%  ------ ||
|| integrals_locpot_mat_els_batch       :   384      340.33s   3.921%  ------ ||
|| projectors_gradient_batch            :    20      466.37s   5.373%  ------ ||
|| density_fftbox_deposit_to_cell       :  9588      471.36s   5.430%  ------ ||
|| cell_grid_extract_box_real           :  6756      475.42s   5.477%  ------ ||
|| edft_diag_ngwf_ham                   :   506      581.85s   6.703%  ------ ||
|| density_batch_row_sums               :   564      634.57s   7.310%  ------ ||
|| projectors_grad_precond_batch        :    20      643.81s   7.417%  ------ ||
|| potential_apply_to_ngwf_batch        :   384      716.15s   8.250%  ------ ||
|| fourier_apply_box                    : 38174      846.60s   9.753%  3.588k ||
|| density_fftbox_interpolate_multiply  :  9588      945.67s  10.894%  ------ ||
|| edft_apply_smearing_operator         :   253      990.97s  11.416%  ------ ||
|| integrals_locpot_dbl_grid            :   192     1061.40s  12.228%  ------ ||
|| ngwf_gradient_build_batch            :    20     1231.09s  14.182%  ------ ||
|| ngwf_gradient_batch                  :    20     1347.14s  15.519%  ------ ||
|| properties_calculate                 :     1     1415.87s  16.311%  ------ ||
|| density_batch_interp_deposit         :   564     1734.33s  19.980%  ------ ||
|| ngwf_gradient_lnv                    :    10     1817.83s  20.942%  ------ ||
|| density_on_dbl_grid                  :   282     2475.73s  28.521%  ------ ||
|| hamiltonian_lhxc_calculate           :   272     2678.73s  30.860%  ------ ||
|| edft_calculate                       :    10     4685.56s  53.979%  ------ ||
|| ngwf_cg_optimise                     :     4     7065.13s  81.392%  ------ ||
|| total_time                           :     1     8680.39s 100.000%  ------ ||
================================================================================
Overhead of generating timer report: 
- 0 ms averaging over threads,
- 32 ms ensuring consistency across MPI ranks,
- 0 ms printing in order.

Job completed: 13-07-2020 05:21 (+0100)

