 +---------------------------------------------------------------+
 |                                                               |
 |        ####### #     # ####### ####### ####### ######         |
 |        #     # ##    # #          #    #       #     #        |
 |        #     # # #   # #          #    #       #     #        |
 |        #     # #  #  # #####      #    #####   ######         |
 |        #     # #   # # #          #    #       #              |
 |        #     # #    ## #          #    #       #              |
 |        ####### #     # #######    #    ####### #              |
 |                                                               |
 |        Linear-Scaling Ab Initio Total Energy Program          |
 |                                                               |
 |          Release for academic collaborators of ODG            |
 |                                             Version 5.3.2.12  |
 |                                                               |
 +---------------------------------------------------------------+
 |                                                               |
 |  Authors:                                                     |
 |  Jacek Dziedzic, Peter D. Haynes, Nicholas D. M. Hine,        |
 |  Arash. A. Mostofi, Mike C. Payne and Chris-Kriton Skylaris   |
 |                                                               |
 |  Contributors:                                                |
 |  J. Aarons, L. Andrinopoulos, P. W. Avraam, R. A. Bell,       |
 |  A. Bhandari, G. A. Bramley, R. J. Charlton, S. J. Clark,     |
 |  R. J. Clements, G. C. Constantinescu, F. Corsetti,           |
 |  N. Corsini, O. Dieguez, S. M. M. Dubois, K. K. B. Duff,      |
 |  J. M. Escartin, A. Greco, H. Helal, Q. O. Hill, L. P. Lee,   |
 |  J.-H. Li, E. B. Linscott, G. Moynihan, D. D. O`Regan,        |
 |  O. K. Okan, M. J. S. Phipps, C. J. Pickard,                  |
 |  J. C. A. Prentice, M. I. J. Probert, L. E. Ratcliff,         |
 |  M. Robinson, A. Ruiz Serrano, J. S. Spencer, E. W. Tait,     |
 |  G. Teobaldi, D. Turban, V. Vitale, K. A. Wilkinson,          |
 |  C. Weber, J. C. Womack, N. Yeung and T. J. Zuehlsdorff       |
 |                                                               |
 |                                   Copyright (c) 2004-2020     |
 |                                                               |
 |  Please cite:                                                 |
 |  "Introducing ONETEP: Linear-scaling density functional       |
 |   simulations on parallel computers".                         |
 |   C.-K. Skylaris, P. D. Haynes, A. A. Mostofi, M. C. Payne.   |
 |   J. Chem. Phys. 122 084119 (2005).                           |
 |                                                               |
 |          in all publications arising from your use of ONETEP. |
 |                                                               |
 +---------------------------------------------------------------+
 |                                                               |
 |   ONETEP is based on developments described in the following  |
 |   publications:                                               |
 |                                                               |
 |  "Nonorthogonal generalized Wannier function pseudopotential  |
 |   plane-wave method".                                         |
 |   C.-K. Skylaris, A. A. Mostofi, P. D. Haynes, O. Dieguez,    |
 |   M. C. Payne.                                                |
 |   Phys. Rev. B 66 035119 (2002).                              |
 |                                                               |
 |  "Preconditioned iterative minimization for linear-scaling    |
 |   electronic structure calculations".                         |
 |   A. A. Mostofi, P. D. Haynes, C.-K. Skylaris, M. C. Payne.   |
 |   J. Chem. Phys. 119(17), pp.8842-8848 (2003).                |
 |                                                               |
 |  "Total-energy calculations on a real space grid with         |
 |   localized functions and a plane-wave basis".                |
 |   A. A. Mostofi, C.-K. Skylaris, P. D. Haynes, M. C. Payne.   |
 |   Comput. Phys. Commun. 147, pp.788-802 (2002).               |
 |                                                               |
 |  "Accurate kinetic energy evaluation in electronic structure  |
 |   calculations with localized functions on real space grids"  |
 |   C.-K. Skylaris, A. A. Mostofi, P. D. Haynes, C. J. Pickard, |
 |   M. C. Payne.                                                |
 |   Comput. Phys. Commun. 140, pp.315-322 (2001).               |
 |                                                               |
 |  "Accurate ionic forces and geometry optimization in linear-  |
 |   scaling density-functional theory with local orbitals"      |
 |   N. D. M. Hine, M. Robinson, P. D. Haynes, C.-K. Skylaris,   |
 |   M. C. Payne, and A. A. Mostofi.                             |
 |   Phys. Rev. B 83 195102 (2011).                              |
 |                                                               |
 +---------------------------------------------------------------+

Job started: 06-11-2020 16:09 (-0000)
 
Reading parameters from file "57/592nano.dat" ...... done

If your calculation crashes here, before "Checking processes and threads..."
is displayed, then your stack size is insufficient.
If so, use "ulimit -s unlimited" at runtime.
You can disable this check with "check_stack_size F".

Checking processes and threads...
   Determining the default number of threads...
      No default threads set at compilation time: defaulting to 1.
      OpenMP library call suggests 4 threads.
      Hybrid MPI-OpenMP compilation detected.
      Number of MPI processes > 1.
      OMP_NUM_THREADS environment variable present and
      its value matches the one obtained from the OpenMP library call.
      Using this value as default.
      Default threads: 4
      Default applies to threads_max and threads_num_fftboxes.
      Settings in the input file override this default.
   ... done

   Running with 160 MPI processes.
   There are 10 MPI processes running on the same node as the root process.
   Each MPI process is using: 
               1 threads for simulation cell FFTs.
               1 threads for parallel FFT box operations.
               4 threads for loops over batched FFT box operations.
               4 threads in other parallel regions.
... done

Basic input checks...
Resetting ngwf_cg_rotate to TRUE for EDFT calculations
... done

Reading geometry and species blocks from file "57/592nano.dat" ...    
  Number of PPD points along a3 set to 1.  This is 
  the default value, it may have been provided also in the input file.
... done
 Writing xyz coordinates to file "57/592nano.xyz" ... done


--------------------------------------------------------------------------------
---------------------------------- INPUT FILE ----------------------------------
--------------------------------------------------------------------------------

task : geometryoptimization                                                     
do_properties : true                                                            
ddec_classical_hirshfeld T                                                      
dx_format T                                                                     
edft T                                                                          
edft_spin_fix 3                                                                 
output_detail VERBOSE                                                           
write_xyz T                                                                     
dispersion 4                                                                    
xc_functional PBE                                                               
cutoff_energy 830 eV                                                            
paw T                                                                           
geom_disp_tol 0.03 bohr                                                         
geom_energy_tol 3E-6 hartree                                                    
geom_force_tol 0.006 "ha/bohr"                                                  
EDFT_MAXIT 30                                                                   
pdos_max_l = 2                                                                  
dos_smear  0.1 eV                                                               
popn_calculate T                                                                
PDOS_PSEUDOATOMIC T                                                             
PDOS_REDUCE_SWS F                                                               
PDOS_CONSTRUCT_BASIS F                                                          
PDOS_LOWDIN T                                                                   
PDOS_ORTH_ATOM_BLOCKS F                                                         
PDOS_LCAO_OPTIMIZE F                                                            
pdos_optados_output T                                                           
homo_plot 0                                                                     
lumo_plot 0                                                                     
homo_dens_plot -1                                                               
lumo_dens_plot -1                                                               
%BLOCK SPECIES                                                                  
C C 6 4 9.0                                                                     
H H 1 1 9.0                                                                     
Li Li 3 5 9.0                                                                   
%ENDBLOCK SPECIES                                                               
%BLOCK SPECIES_POT                                                              
C "~/pp/paw/c_pbe_abinit.paw"                                                   
H "~/pp/paw/h_pbe_abinit.paw"                                                   
Li "~/pp/paw/li_pbe_abinit.paw"                                                 
%ENDBLOCK SPECIES_POT                                                           
%BLOCK SPECIES_ATOMIC_SET                                                       
C "SOLVE conf=2s2 2p2"                                                          
H "SOLVE conf=1s1"                                                              
Li "SOLVE conf=1s2 2s1 2p0"                                                     
%ENDBLOCK SPECIES_ATOMIC_SET                                                    
%BLOCK SPECIES_LDOS_GROUPS                                                      
C                                                                               
H                                                                               
Li                                                                              
%ENDBLOCK SPECIES_LDOS_GROUPS                                                   
%BLOCK LATTICE_CART                                                             
94.486315650000      0.000000000000       0.000000000000                        
0.000000000000       94.486315650000      0.000000000000                        
0.000000000000       0.000000000000       94.486315650000                       
%ENDBLOCK LATTICE_CART                                                          
%BLOCK POSITIONS_ABS                                                            
C 45.469091 50.714138 30.069697                                                 
C 45.464113 50.602342 36.279125                                                 
C 46.814314 53.061158 30.084349                                                 
C 48.173359 50.624253 36.296745                                                 
C 49.526710 48.381226 29.995489                                                 
C 49.545790 48.263299 36.277692                                                 
C 50.873713 50.730395 30.019913                                                 
C 52.261318 48.273232 36.187996                                                 
C 45.462743 55.402929 29.963952                                                 
C 45.452134 55.304020 36.262947                                                 
C 46.805315 57.745553 29.836255                                                 
C 48.169061 55.323255 36.260441                                                 
C 49.516270 53.068310 30.064208                                                 
C 49.526027 52.972531 36.295321                                                 
C 50.858388 55.413435 29.926416                                                 
C 52.245122 52.981420 36.311372                                                 
C 45.436466 50.476369 43.691143                                                 
C 45.383217 50.414167 49.706113                                                 
C 46.782746 52.819553 43.679301                                                 
C 48.086687 50.410209 49.735745                                                 
C 49.512578 48.125053 43.636024                                                 
C 49.429687 48.067342 49.816295                                                 
C 50.861728 50.478335 43.655584                                                 
C 52.126540 48.063446 49.992560                                                 
C 45.414786 55.170194 43.705468                                                 
C 45.393503 55.093176 49.815436                                                 
C 46.751841 57.517449 43.639761                                                 
C 48.094394 55.090378 49.832362                                                 
C 49.489221 52.822515 43.675204                                                 
C 49.439369 52.748227 49.801904                                                 
C 50.833550 55.163962 43.714872                                                 
C 52.133237 52.745688 49.963167                                                 
C 57.616144 48.420500 29.411931                                                 
C 57.656636 48.292332 36.381941                                                 
C 58.966106 50.768925 29.378530                                                 
C 60.375723 48.301555 36.441339                                                 
C 57.672096 48.142584 43.624765                                                 
C 57.473591 48.054977 50.616581                                                 
C 59.006044 50.515230 43.674878                                                 
C 60.182114 48.055007 50.957348                                                 
C 53.569778 50.742664 29.847276                                                 
C 53.600911 50.637418 36.304717                                                 
C 54.905467 53.088433 29.723943                                                 
C 56.312413 50.641418 36.382260                                                 
C 53.587558 50.490924 43.639619                                                 
C 53.472947 50.400992 50.081355                                                 
C 54.924656 52.846297 43.575345                                                 
C 56.156623 50.395145 50.408603                                                 
C 57.621338 43.761748 29.058952                                                 
C 57.713804 43.596632 36.253097                                                 
C 58.971934 46.082914 29.138972                                                 
C 60.465658 43.596231 36.240223                                                 
C 57.648948 43.429890 43.525151                                                 
C 57.490971 43.382127 50.761741                                                 
C 59.020672 45.795164 43.589828                                                 
C 60.187569 43.377722 51.084004                                                 
C 53.580194 46.070948 29.616118                                                 
C 53.625556 45.909875 36.274159                                                 
C 54.921664 48.408301 29.662169                                                 
C 56.339454 45.920422 36.318361                                                 
C 53.593435 45.783813 43.570683                                                 
C 53.461874 45.721992 50.198175                                                 
C 54.948852 48.136345 43.611804                                                 
C 56.147442 45.726239 50.500934                                                 
C 57.578143 57.767267 29.219256                                                 
C 57.659323 57.681729 36.333516                                                 
C 58.911146 60.124417 28.920219                                                 
C 60.402600 57.679879 36.217741                                                 
C 57.609978 57.551742 43.408782                                                 
C 57.528676 57.406571 50.571596                                                 
C 58.990898 59.934917 43.358999                                                 
C 60.247693 57.388322 50.827382                                                 
C 45.445269 64.731518 29.003989                                                 
C 45.427307 64.706430 36.155539                                                 
C 46.803106 67.070685 28.690980                                                 
C 48.145577 64.715775 36.135251                                                 
C 49.483791 62.397036 29.250825                                                 
C 49.517258 62.380665 36.226932                                                 
C 50.851496 64.758514 28.908887                                                 
C 52.254878 62.371388 36.362094                                                 
C 45.398148 64.548249 43.459570                                                 
C 45.426975 64.418169 50.635836                                                 
C 46.766454 66.936101 43.368633                                                 
C 48.116509 64.418681 50.659527                                                 
C 49.448053 62.194820 43.500000                                                 
C 49.455929 62.085141 50.437012                                                 
C 50.798603 64.563970 43.588851                                                 
C 52.137108 62.091222 50.555275                                                 
C 53.539373 60.079692 29.417460                                                 
C 53.617843 60.039452 36.299650                                                 
C 54.892387 62.444664 29.166504                                                 
C 56.314726 60.039971 36.325339                                                 
C 53.512298 59.849216 43.434479                                                 
C 53.484277 59.756585 50.376287                                                 
C 54.860488 62.195310 43.410152                                                 
C 56.200006 59.749210 50.518071                                                 
C 57.601415 53.100005 29.466408                                                 
C 57.643316 52.985846 36.462178                                                 
C 58.941484 55.454552 29.243846                                                 
C 60.369421 52.997463 36.597287                                                 
C 57.643578 52.862158 43.540147                                                 
C 57.489845 52.735352 50.596973                                                 
C 58.981263 55.212532 43.475215                                                 
C 60.205095 52.742828 50.975200                                                 
C 45.451524 60.076213 29.601055                                                 
C 45.460354 60.017458 36.227092                                                 
C 46.798747 62.404258 29.308405                                                 
C 48.150846 60.022189 36.205151                                                 
C 49.503217 57.747510 29.810780                                                 
C 49.516330 57.688477 36.185537                                                 
C 50.844701 60.081710 29.531214                                                 
C 52.258580 57.691978 36.191594                                                 
C 45.386909 59.865706 43.584362                                                 
C 45.410277 59.757828 50.153010                                                 
C 46.747501 62.207702 43.507304                                                 
C 48.104470 59.759649 50.162321                                                 
C 49.456789 57.515866 43.631312                                                 
C 49.446315 57.424271 50.001605                                                 
C 50.808549 59.864430 43.496135                                                 
C 52.142170 57.421418 50.119232                                                 
C 53.552825 55.417992 29.753930                                                 
C 53.601767 55.342090 36.275051                                                 
C 54.884704 57.762825 29.494417                                                 
C 56.313420 55.335952 36.366232                                                 
C 53.564934 55.172227 43.586833                                                 
C 53.482733 55.083642 50.114131                                                 
C 54.902257 57.525229 43.463844                                                 
C 56.169239 55.072590 50.397443                                                 
H 27.271490 41.362397 28.333875                                                 
H 28.182004 39.345103 36.108827                                                 
H 27.121315 41.054454 43.406083                                                 
H 28.173691 39.344629 50.865495                                                 
H 41.849470 30.212951 28.822585                                                 
C 42.864223 32.016089 28.897575                                                 
H 44.523801 30.010957 36.114897                                                 
H 41.775275 29.870310 43.584605                                                 
C 42.792843 31.666737 43.582001                                                 
H 44.330807 29.987070 51.104073                                                 
H 29.589844 37.262167 28.671569                                                 
C 30.624148 39.050779 28.765764                                                 
H 32.301214 37.007504 36.259225                                                 
H 33.639069 34.883117 28.984011                                                 
C 34.680005 36.664109 29.115318                                                 
H 29.484963 36.944242 43.569068                                                 
C 30.525099 38.724699 43.486024                                                 
H 32.232135 36.997660 50.920883                                                 
H 33.556008 34.570846 43.679301                                                 
C 34.591806 36.357055 43.598186                                                 
H 37.718629 32.538766 28.533007                                                 
C 38.737254 34.318961 28.833483                                                 
H 40.379684 32.367330 36.452597                                                 
H 37.634138 32.211903 43.559611                                                 
C 38.666619 34.000433 43.567948                                                 
H 40.274759 32.341839 51.040557                                                 
H 46.557757 30.252262 28.876087                                                 
H 46.521596 29.898715 43.473188                                                 
H 25.722375 48.176856 36.011406                                                 
C 27.788062 48.189786 36.060683                                                 
H 25.810839 48.094343 51.084541                                                 
C 27.871553 48.097383 50.912038                                                 
H 25.791452 43.422171 35.918540                                                 
H 27.269238 46.059080 28.466570                                                 
C 27.856981 43.450153 35.984987                                                 
H 25.813312 43.416237 50.953446                                                 
H 27.118228 45.789020 43.406690                                                 
C 27.877866 43.412933 50.859734                                                 
H 25.753657 57.695041 36.224394                                                 
H 27.237660 60.003497 28.439967                                                 
C 27.819475 57.674314 36.267268                                                 
H 25.858404 57.453500 51.326280                                                 
H 27.052133 59.786162 43.943144                                                 
C 27.920296 57.451950 51.181845                                                 
H 25.707961 52.933044 36.151046                                                 
H 27.246891 55.310430 28.601307                                                 
C 27.773608 52.933816 36.199231                                                 
H 25.814887 52.772243 51.119791                                                 
H 27.108351 55.034976 43.586251                                                 
C 27.875866 52.764967 50.966715                                                 
C 29.327087 41.347699 28.546612                                                 
C 29.199950 41.145091 36.109966                                                 
C 30.611527 43.696452 28.694121                                                 
C 31.891988 41.106839 36.148967                                                 
C 33.293135 38.969605 29.010304                                                 
C 33.316397 38.813590 36.283529                                                 
C 34.660649 41.341353 29.135524                                                 
C 35.976779 38.808273 36.488356                                                 
C 29.328342 46.046399 28.669002                                                 
C 29.095539 45.799086 36.032053                                                 
C 30.626278 48.350189 28.757125                                                 
C 31.875980 45.827589 36.106375                                                 
C 33.326769 43.687613 29.022884                                                 
C 33.254293 43.487710 36.153389                                                 
C 34.677437 46.012624 29.215669                                                 
C 35.968015 43.500131 36.254846                                                 
C 29.186779 41.043041 43.434629                                                 
C 29.195195 41.140523 50.816960                                                 
C 30.473375 43.392538 43.301555                                                 
C 31.880380 41.078767 50.725812                                                 
C 33.194502 38.651411 43.458276                                                 
C 33.260252 38.787972 50.794042                                                 
C 34.586019 41.051124 43.425496                                                 
C 35.909434 38.758772 50.854552                                                 
C 29.188991 45.760609 43.403577                                                 
C 29.161884 45.785359 50.808103                                                 
C 30.523117 48.071194 43.503199                                                 
C 31.887074 45.767987 50.592109                                                 
C 33.227102 43.401053 43.388038                                                 
C 33.229610 43.440158 50.567876                                                 
C 34.594979 45.739933 43.458936                                                 
C 35.936233 43.436527 50.400816                                                 
C 41.432114 38.994960 29.189632                                                 
C 41.436035 38.837429 36.494548                                                 
C 42.776224 41.345955 29.248472                                                 
C 44.181391 38.813674 36.520001                                                 
C 41.380659 38.679746 43.693760                                                 
C 41.334155 38.768936 50.615846                                                 
C 42.737078 41.054162 43.832808                                                 
C 44.016628 38.746809 50.476598                                                 
C 37.371323 41.328879 29.288252                                                 
C 37.344946 41.185327 36.401174                                                 
C 38.715759 43.675656 29.477429                                                 
C 40.055478 41.190606 36.468980                                                 
C 37.285027 41.048237 43.538930                                                 
C 37.280242 41.116728 50.558415                                                 
C 38.656626 43.399441 43.623975                                                 
C 39.975251 41.092195 50.399791                                                 
C 41.437180 34.287809 28.927616                                                 
C 41.441269 34.137557 36.204468                                                 
C 42.801724 36.660653 29.076324                                                 
C 44.153610 34.068683 36.390440                                                 
C 41.384415 33.926342 43.620211                                                 
C 41.316361 34.122556 50.883088                                                 
C 42.758381 36.339945 43.649428                                                 
C 43.998512 34.067578 50.974805                                                 
C 37.353591 36.604282 29.015732                                                 
C 37.384262 36.513107 36.311276                                                 
C 38.728447 38.983993 29.203712                                                 
C 40.094087 36.492160 36.296857                                                 
C 37.256265 36.299816 43.581105                                                 
C 37.293445 36.462521 50.736996                                                 
C 38.644184 38.700589 43.619492                                                 
C 39.961739 36.413016 50.915910                                                 
C 41.419982 48.358612 29.808189                                                 
C 41.380670 48.254995 36.349785                                                 
C 42.772553 50.704473 29.914215                                                 
C 44.116657 48.249944 36.241320                                                 
C 41.372969 48.104436 43.717104                                                 
C 41.327259 48.083636 49.829494                                                 
C 42.719271 50.468822 43.703101                                                 
C 44.028400 48.076797 49.749564                                                 
C 29.305463 55.329599 28.803221                                                 
C 29.064124 55.333938 36.272682                                                 
C 30.585760 57.684348 28.808945                                                 
C 31.852305 55.314174 36.349048                                                 
C 33.342992 53.034148 29.093135                                                 
C 33.181333 52.959612 36.372080                                                 
C 34.674361 55.378042 29.173840                                                 
C 35.919860 52.938927 36.610419                                                 
C 29.175465 55.079583 43.590329                                                 
C 29.186490 55.091275 51.004927                                                 
C 30.429432 57.449730 43.699809                                                 
C 31.907269 55.100814 50.762537                                                 
C 33.254051 52.790524 43.540959                                                 
C 33.251629 52.753331 50.520713                                                 
C 34.569028 55.150423 43.605992                                                 
C 35.943513 52.759191 50.220425                                                 
C 37.391016 50.684754 29.405349                                                 
C 37.275427 50.587910 36.400156                                                 
C 38.756422 53.037249 29.383216                                                 
C 40.010736 50.575568 36.402382                                                 
C 37.311423 50.460486 43.665031                                                 
C 37.282613 50.427782 50.051817                                                 
C 38.645134 52.823406 43.671376                                                 
C 39.981861 50.423549 49.864878                                                 
C 41.423333 43.685479 29.529658                                                 
C 41.401583 43.559040 36.469008                                                 
C 42.768679 46.018802 29.773557                                                 
C 44.160273 43.564834 36.526124                                                 
C 41.369458 43.387876 43.722470                                                 
C 41.323503 43.415497 50.095333                                                 
C 42.728084 45.746629 43.705337                                                 
C 44.022381 43.404055 49.999976                                                 
C 29.323643 50.684036 28.974923                                                 
C 29.061132 50.565596 36.151781                                                 
C 30.614644 53.030487 28.827102                                                 
C 31.838958 50.571631 36.223866                                                 
C 33.352251 48.350454 29.075645                                                 
C 33.202087 48.191838 36.167642                                                 
C 34.678163 50.687625 29.222047                                                 
C 35.939307 48.206119 36.167384                                                 
C 29.232300 50.416890 43.312120                                                 
C 29.158933 50.414466 50.870019                                                 
C 30.529026 52.769374 43.501736                                                 
C 31.897985 50.419151 50.608066                                                 
C 33.259915 48.090788 43.444776                                                 
C 33.240592 48.099903 50.427990                                                 
C 34.601660 50.445695 43.521111                                                 
C 35.931331 48.096256 50.176869                                                 
C 37.372689 46.003640 29.485836                                                 
C 37.310700 45.873676 36.245432                                                 
C 38.726074 48.349450 29.601090                                                 
C 40.034104 45.879292 36.378610                                                 
C 37.313946 45.725957 43.620071                                                 
C 37.278223 45.762662 50.154992                                                 
C 38.666337 48.106373 43.727143                                                 
C 39.975861 45.751534 49.991193                                                 
C 45.509333 32.032684 28.896304                                                 
C 45.554231 31.801414 36.181047                                                 
C 46.890022 34.331969 28.934611                                                 
C 48.231418 31.798865 36.116992                                                 
H 49.256687 30.015769 35.955753                                                 
H 50.617143 32.630485 28.799339                                                 
C 45.500992 36.680426 29.052323                                                 
C 45.521063 36.457635 36.423097                                                 
C 46.851680 39.028358 29.173844                                                 
C 48.234996 36.469120 36.374718                                                 
C 49.566769 34.408209 28.905431                                                 
C 49.620490 34.088054 36.198201                                                 
C 50.905536 36.698649 28.852097                                                 
C 52.295852 34.166129 35.991291                                                 
C 45.477180 31.679676 43.470153                                                 
C 45.380200 31.764068 50.968089                                                 
C 46.858474 33.986470 43.557628                                                 
C 47.997553 31.738483 50.753368                                                 
H 49.019721 29.941262 50.733334                                                 
H 50.600733 32.303805 43.249114                                                 
C 45.478823 36.356165 43.598724                                                 
C 45.363862 36.402171 50.678385                                                 
C 46.815882 38.716364 43.566733                                                 
C 48.046699 36.378178 50.571227                                                 
C 49.538418 34.077581 43.290802                                                 
C 49.410621 34.010175 50.636873                                                 
C 50.866476 36.395274 43.158973                                                 
C 52.087445 34.037653 50.488613                                                 
H 53.329269 32.387944 35.799670                                                 
H 53.109091 32.241625 50.521217                                                 
C 57.599574 39.112220 28.892047                                                 
C 57.778714 38.834630 36.036529                                                 
C 58.975389 41.419762 28.752857                                                 
C 60.442941 38.913664 36.058062                                                 
C 57.608309 38.752173 43.403397                                                 
C 57.512354 38.679887 50.840273                                                 
C 59.020618 41.031056 43.549562                                                 
C 60.182004 38.754642 51.033584                                                 
C 45.479606 46.032801 29.845311                                                 
C 45.504707 45.917773 36.394103                                                 
C 46.823665 48.371035 30.029899                                                 
C 48.213561 45.914493 36.367042                                                 
C 49.534212 43.717508 29.608085                                                 
C 49.584853 43.551281 36.388455                                                 
C 50.878134 46.053055 29.783867                                                 
C 52.275768 43.569978 36.316573                                                 
C 45.446872 45.758034 43.683448                                                 
C 45.374436 45.734696 49.823843                                                 
C 46.798428 48.115436 43.660734                                                 
C 48.076794 45.729049 49.851262                                                 
C 49.505432 43.427690 43.541511                                                 
C 49.416488 43.391644 50.031003                                                 
C 50.870077 45.769970 43.583286                                                 
C 52.107808 43.391586 50.200051                                                 
C 53.571709 41.426074 29.121307                                                 
C 53.653691 41.210022 36.244143                                                 
C 54.923509 43.751667 29.285465                                                 
C 56.368046 41.228796 36.168691                                                 
C 53.562392 41.112389 43.395299                                                 
C 53.454472 41.051593 50.421488                                                 
C 54.947986 43.436360 43.481558                                                 
C 56.159876 41.049465 50.687694                                                 
H 57.386862 34.743158 35.798976                                                 
H 58.636940 37.328035 28.741339                                                 
H 57.191352 34.595578 50.718764                                                 
H 58.609874 36.940909 43.418009                                                 
C 45.490070 41.361392 29.321517                                                 
C 45.550765 41.189730 36.552194                                                 
C 46.835011 43.707935 29.621775                                                 
C 48.252841 41.195193 36.460651                                                 
C 49.537682 39.057145 29.108704                                                 
C 49.581552 38.831032 36.382794                                                 
C 50.887947 41.392141 29.297882                                                 
C 52.281030 38.845557 36.220079                                                 
C 45.452427 41.059974 43.714833                                                 
C 45.369683 41.067275 50.178952                                                 
C 46.809763 43.411323 43.632378                                                 
C 48.063966 41.060165 50.162130                                                 
C 49.505035 38.755699 43.373663                                                 
C 49.405935 38.719223 50.364704                                                 
C 50.859535 41.090196 43.431898                                                 
C 52.109781 38.706598 50.424600                                                 
C 53.577121 36.771841 28.988231                                                 
C 53.668599 36.449254 36.063252                                                 
C 54.944259 39.068178 28.831764                                                 
C 56.357812 36.526734 35.950921                                                 
C 53.538329 36.450415 43.287251                                                 
C 53.479800 36.317747 50.551657                                                 
C 54.920059 38.749598 43.351608                                                 
C 56.151582 36.379930 50.647960                                                 
H 61.490892 37.138058 35.973498                                                 
H 62.676058 39.686237 28.566366                                                 
H 61.215777 36.965733 51.101164                                                 
H 62.728369 39.288920 43.821880                                                 
H 28.137984 61.800235 36.166247                                                 
H 28.238442 61.503750 51.389361                                                 
C 29.295063 60.026920 28.632305                                                 
C 29.159632 60.003865 36.219491                                                 
C 30.588897 62.331308 28.766226                                                 
C 31.855033 60.041797 36.307396                                                 
C 33.307701 57.708750 29.065432                                                 
C 33.209443 57.672460 36.445108                                                 
C 34.636475 60.053402 29.142585                                                 
C 35.934075 57.652600 36.519634                                                 
H 29.549214 64.111844 28.638825                                                 
H 32.263165 64.148280 36.302659                                                 
C 33.266274 62.428073 28.981517                                                 
C 33.268892 62.340740 36.268329                                                 
C 34.640184 64.733696 29.073615                                                 
C 35.959099 62.342822 36.357951                                                 
C 29.109393 59.795077 43.803996                                                 
C 29.248178 59.705367 51.219120                                                 
C 30.454351 62.143911 43.679669                                                 
C 31.923474 59.759390 51.072811                                                 
C 33.190711 57.471773 43.626087                                                 
C 33.261782 57.419763 50.764739                                                 
C 34.541517 59.840160 43.631763                                                 
C 35.965241 57.422924 50.481835                                                 
H 29.403288 63.920808 43.691535                                                 
H 32.297871 63.850699 51.236130                                                 
C 33.126302 62.233846 43.549217                                                 
C 33.302221 62.074526 50.863212                                                 
C 34.543580 64.548114 43.342891                                                 
C 35.975393 62.092394 50.851225                                                 
C 41.417125 57.736543 29.620131                                                 
C 41.379151 57.654747 36.340295                                                 
C 42.759526 60.074088 29.543228                                                 
C 44.097731 57.662535 36.256710                                                 
C 41.330901 57.522117 43.700433                                                 
C 41.351095 57.426947 50.081550                                                 
C 42.698550 59.866799 43.616687                                                 
C 44.051884 57.427528 49.980144                                                 
C 37.354442 60.069407 29.308995                                                 
C 37.319775 59.976632 36.427477                                                 
C 38.703328 62.414335 29.254206                                                 
C 40.029607 60.002882 36.388966                                                 
C 37.250002 59.856798 43.679937                                                 
C 37.324393 59.736540 50.562539                                                 
C 38.623182 62.212200 43.657779                                                 
C 40.012158 59.754677 50.373537                                                 
C 41.434339 53.046751 29.729146                                                 
C 41.359549 52.947361 36.370675                                                 
C 42.768046 55.400879 29.803512                                                 
C 44.078985 52.944107 36.285400                                                 
C 41.345755 52.819146 43.714062                                                 
C 41.336278 52.758755 49.832772                                                 
C 42.696959 55.171319 43.790909                                                 
C 44.036811 52.755938 49.747922                                                 
C 37.388695 55.400044 29.292219                                                 
C 37.268755 55.305309 36.605612                                                 
C 38.718913 57.735795 29.430762                                                 
C 40.003225 55.302817 36.425900                                                 
C 37.283014 55.167479 43.650753                                                 
C 37.295245 55.092850 50.199008                                                 
C 38.619201 57.507790 43.675846                                                 
C 39.991958 55.095650 49.998668                                                 
C 41.387955 67.101743 28.888284                                                 
C 41.365652 67.005737 36.343494                                                 
C 42.787707 69.378616 28.738541                                                 
C 44.050115 67.089639 36.098349                                                 
C 41.307151 66.957941 43.509961                                                 
C 41.386275 66.715362 50.890389                                                 
C 42.701178 69.234975 43.511760                                                 
C 44.060608 66.768206 50.831390                                                 
H 37.684635 68.862903 28.953168                                                 
H 40.310029 68.783497 36.375883                                                 
H 37.586629 68.684069 43.610114                                                 
H 40.352925 68.500027 51.052947                                                 
C 41.406335 62.407881 29.292187                                                 
C 41.391790 62.327976 36.357377                                                 
C 42.760005 64.743933 29.037954                                                 
C 44.087082 62.356317 36.243525                                                 
C 41.337233 62.215452 43.562842                                                 
C 41.383428 62.077568 50.554878                                                 
C 42.690208 64.556462 43.480270                                                 
C 44.067774 62.082796 50.420941                                                 
H 33.603543 66.516039 28.948142                                                 
H 33.519476 66.331035 43.131965                                                 
C 37.319673 64.796562 29.081820                                                 
C 37.352224 64.640575 36.344489                                                 
C 38.709257 67.070944 29.037570                                                 
C 40.027972 64.695233 36.480995                                                 
C 37.246608 64.611320 43.546134                                                 
C 37.347878 64.393791 50.783027                                                 
C 38.618755 66.893092 43.611773                                                 
C 40.039172 64.438278 50.891595                                                 
C 61.655934 41.481380 28.710275                                                 
C 61.770993 41.252949 36.237217                                                 
C 62.979562 43.745634 28.845298                                                 
H 63.835837 41.268551 36.204074                                                 
C 61.706900 46.096607 28.989144                                                 
C 61.727122 45.969753 36.553277                                                 
C 63.010804 48.436248 29.132841                                                 
H 63.796057 46.017629 36.516582                                                 
H 65.048785 43.748257 28.801859                                                 
C 61.702297 41.075526 43.725324                                                 
C 61.474018 41.031516 51.161003                                                 
C 63.058373 43.420261 43.796740                                                 
H 63.535563 41.047825 51.333999                                                 
C 61.799809 45.781523 43.673180                                                 
C 61.502554 45.730622 50.956780                                                 
C 63.095292 48.176580 43.572322                                                 
H 63.539023 45.742869 51.353813                                                 
H 65.118955 43.399613 43.902260                                                 
C 61.665029 55.458039 29.092444                                                 
C 61.690397 55.317855 36.437431                                                 
C 62.929147 57.825004 28.996645                                                 
H 63.759074 55.299493 36.410048                                                 
H 65.054028 53.151013 29.095356                                                 
C 61.750818 55.229513 43.640891                                                 
C 61.520470 55.036365 50.949148                                                 
C 63.017801 57.578775 43.686773                                                 
H 63.581100 55.021181 51.122172                                                 
H 65.100440 52.887957 43.921623                                                 
C 61.717914 50.778600 29.194020                                                 
C 61.671361 50.655616 36.436334                                                 
C 62.989056 53.131026 29.180639                                                 
H 65.075479 48.439025 29.037509                                                 
C 61.770230 50.537939 43.717198                                                 
C 61.495058 50.385566 50.945320                                                 
C 63.039643 52.875333 43.821059                                                 
H 65.159121 48.185643 43.453576                                                 
H 41.750824 71.167285 28.684799                                                 
H 44.398591 71.171139 36.145890                                                 
H 41.677160 71.027045 43.554508                                                 
H 44.409039 70.842168 51.029571                                                 
C 45.403758 69.367352 28.629124                                                 
C 45.435645 69.387774 36.167414                                                 
H 46.448251 71.146693 28.478896                                                 
C 48.117548 69.393014 36.127665                                                 
C 49.472519 67.042087 28.845327                                                 
C 49.519310 67.125208 36.127624                                                 
H 50.503870 68.825853 28.659760                                                 
C 52.223382 67.054820 36.202099                                                 
H 49.140134 71.186015 36.128627                                                 
C 45.373428 69.228935 43.473180                                                 
C 45.453995 69.061058 50.953365                                                 
H 46.409256 71.015516 43.430042                                                 
C 48.084136 69.064102 50.982977                                                 
C 49.454978 66.863563 43.487291                                                 
C 49.492120 66.768151 50.889337                                                 
H 50.504682 68.645676 43.498859                                                 
C 52.145509 66.731674 50.931029                                                 
H 49.121380 70.848721 51.085372                                                 
H 57.323148 66.522948 35.916547                                                 
H 57.228057 66.199016 50.865518                                                 
H 53.250898 68.843390 36.135836                                                 
H 53.173798 68.519378 51.082990                                                 
C 57.542722 62.410995 29.045307                                                 
C 57.702261 62.429154 36.207948                                                 
H 58.565061 64.201859 28.884252                                                 
C 60.371873 62.350750 36.218537                                                 
C 57.556737 62.214639 43.578693                                                 
C 57.563446 62.122228 50.699534                                                 
H 58.549268 64.030560 43.730494                                                 
C 60.255872 62.031213 50.784679                                                 
C 53.511971 64.722381 29.013151                                                 
C 53.637168 64.771427 36.271850                                                 
C 56.305754 64.737376 36.133242                                                 
C 53.482643 64.514570 43.387331                                                 
C 53.510153 64.466965 50.805347                                                 
C 56.192326 64.415316 50.745931                                                 
C 61.605992 60.070941 28.900706                                                 
C 61.695905 60.031078 36.238744                                                 
H 62.615073 61.874752 28.808912                                                 
H 63.759414 60.018552 36.157737                                                 
H 64.998045 57.830904 28.977658                                                 
H 61.417281 64.128229 36.139882                                                 
C 61.665491 59.895056 43.529859                                                 
C 61.548524 59.735404 50.894350                                                 
H 62.686652 61.690007 43.543808                                                 
H 63.611329 59.712960 50.998706                                                 
H 65.075342 57.596057 43.845051                                                 
H 61.295754 63.815083 50.845660                                                 
H 63.533647 50.380602 51.333166                                                 
H 36.259867 34.676279 50.890399                                                 
H 36.328113 66.162430 51.152593                                                 
H 27.162693 50.422490 43.342881                                                 
H 54.530190 66.297679 43.549093                                                 
H 63.742149 50.652844 36.460656                                                 
H 54.579767 34.660539 43.261804                                                 
H 36.365887 34.708725 36.463212                                                 
H 36.311708 66.428860 36.385861                                                 
H 54.540017 66.505899 28.820394                                                 
H 27.265232 50.683684 28.760422                                                 
H 54.619537 34.992102 28.865309                                                 
Li 58.997814 60.153379 32.804212                                                
Li 30.274745 43.395543 47.235100                                                
Li 44.279809 34.052162 32.462801                                                
Li 46.860898 67.057510 47.328106                                                
Li 60.251782 43.157727 47.146732                                                
Li 31.239951 59.988628 32.365626                                                
Li 51.414891 64.375195 32.767756                                                
Li 40.350302 65.162840 32.568002                                                
Li 60.189544 53.111072 47.103231                                                
Li 30.126426 52.831739 47.357899                                                
Li 35.571448 38.824504 47.001358                                                
Li 55.311868 38.677099 47.169894                                                
Li 35.956422 38.883488 32.603337                                                
Li 50.560973 36.398302 32.719861                                                
Li 39.893077 36.211279 47.070809                                                
Li 50.584846 36.069556 47.042412                                                
Li 54.782532 62.569672 47.201009                                                
Li 40.212760 64.702494 47.033388                                                
Li 30.352525 53.246335 32.726222                                                
Li 30.410909 48.066418 32.623864                                                
Li 31.624611 59.783963 47.163969                                                
Li 60.579205 53.414295 32.703484                                                
Li 54.897089 38.963590 32.672617                                                
Li 60.645636 48.042604 32.630613                                                
Li 46.692274 67.372849 32.618938                                                
Li 59.365966 59.675105 47.253871                                                
Li 31.193975 41.562364 32.293579                                                
Li 44.477460 33.604531 47.066214                                                
Li 59.547139 41.370840 32.660933                                                
Li 36.182258 62.196163 40.148745                                                
Li 30.276828 47.854664 39.594205                                                
Li 35.085464 63.735278 47.262045                                                
Li 50.678709 64.838964 39.690046                                                
Li 39.916070 36.278678 40.137384                                                
Li 60.476479 48.509061 40.217376                                                
Li 62.227328 48.146272 47.465462                                                
Li 55.158218 38.602114 39.548222                                                
Li 30.330320 53.075119 39.691729                                                
Li 44.102105 48.139659 40.191939                                                
Li 42.791552 55.395960 39.817206                                                
Li 35.769689 62.622815 32.559778                                                
Li 31.711558 40.861490 39.975277                                                
Li 52.249151 48.168409 40.131783                                                
Li 55.966921 63.385775 39.865346                                                
Li 43.939695 67.107377 39.989263                                                
Li 30.877063 59.505143 40.105882                                                
Li 46.994324 33.741920 39.699110                                                
Li 60.717367 57.583184 40.088907                                                
Li 60.715847 43.113611 40.144856                                                
Li 51.103946 56.143403 39.822579                                                
Li 36.830045 48.185635 40.045674                                                
Li 43.413353 41.399080 33.105983                                                
Li 37.067627 53.310933 32.918249                                                
Li 43.160715 41.391999 39.952058                                                
Li 39.010670 34.644027 32.765543                                                
Li 50.241960 44.242920 32.994720                                                
Li 56.241000 64.739640 32.744760                                                
%ENDBLOCK POSITIONS_ABS                                                         

--------------------------------------------------------------------------------
-------------------------------- END INPUT FILE --------------------------------
--------------------------------------------------------------------------------


 
<<<<<<<<<<<<<<<<<<<<<<<<<<<<<<<<< Full system >>>>>>>>>>>>>>>>>>>>>>>>>>>>>>>>>>
<<<<<<<<<<<<<<<<<<<<<<<<<<< PAW Dataset information >>>>>>>>>>>>>>>>>>>>>>>>>>>
File: ~/pp/paw/c_pbe_abinit.paw; rc = 1.25 bohr; shape type =  3; rshape = 1.25 bohr;
  Atomic number:  6;  ionic charge:  4.000000
    Partial Wave 1: l = 0
    Partial Wave 2: l = 0
    Partial Wave 3: l = 1
    Partial Wave 4: l = 1
  Core charge supplied for Nonlinear Core Corrections
File: ~/pp/paw/h_pbe_abinit.paw; rc = 0.90 bohr; shape type =  3; rshape = 0.90 bohr;
  Atomic number:  1;  ionic charge:  1.000000
    Partial Wave 1: l = 0
    Partial Wave 2: l = 0
File: ~/pp/paw/li_pbe_abinit.paw; rc = 1.42 bohr; shape type =  3; rshape = 1.42 bohr;
  Atomic number:  3;  ionic charge:  3.000000
    Partial Wave 1: l = 0
    Partial Wave 2: l = 0
    Partial Wave 3: l = 0
    Partial Wave 4: l = 1
    Partial Wave 5: l = 1
<<<<<<<<<<<<<<<<<<<<<<<<<<<<<<<<<<<<<<< >>>>>>>>>>>>>>>>>>>>>>>>>>>>>>>>>>>>>>>

-------------------------- Atom counting information ---------------------------
Symbol    Natoms    Nngwfs    Nprojs
  C        484      1936      3872
  H        108       108       216
  Li        57       285       513
.......   ......    ......    ......
Totals:    649      2329      4601
--------------------------------------------------------------------------------

=============================== PSINC grid sizes ===============================
                      Simulation cell:  189 x 189 x 189
                              FFT-box:  117 x 117 x 117
                                  PPD:    7 x   7 x   1
Grid space d1=  0.499927596032a0 (KE cutoff=  30.39413Eh = 827.06648eV)
Grid space d2=  0.499927596032a0 (KE cutoff=  30.39413Eh = 827.06648eV)
Grid space d3=  0.499927596032a0 (KE cutoff=  30.39413Eh = 827.06648eV)
================================================================================
  
WARNING in cell_grid_distribute:
Average of less than one 23-slab per node, so workload cannot be
equally balanced between nodes.

********************* Fourier parallelisation information **********************
       Coarse grid (whole simulation cell) dimensions:    189   189   189
          Real-space ('12') slabs/node (min max mean):      1     2     1
         Recip-space ('23') slabs/node (min max mean):      0     1     0
********************************************************************************

********************* Fourier parallelisation information **********************
       Double grid (whole simulation cell) dimensions:    378   378   378
          Real-space ('12') slabs/node (min max mean):      2     3     2
         Recip-space ('23') slabs/node (min max mean):      1     2     1
********************************************************************************

Atom SCF Calculation for C  : Z (AE atom) =   6 : Z (PS atom) =   4
Config String: 2s2 2p2
Orbitals (num,occ):  2     2.00 2.00
Orbitals   (num,l):  2        0    1
Real-space Grid (nr,dr,rmax): 1377    0.0065406977    9.0000000000
Spherical Bessel Basis (nsws,lmax,cutoff):   37    2  183.0099912382
Confining potential (l,width,scale):  0    3.0000000000  100.0000000000
Confining potential (l,width,scale):  1    3.0000000000  100.0000000000
  1         -5.4350126632   -1.2715272878    4.5135247139   -1.5681949477
  2         -5.3876836850   -1.3562195125    4.4235426751   -1.5380057521
  3         -5.3928844498   -1.3758175853    4.4021699684   -1.5318377811
  4         -5.3988962903   -1.3800385428    4.3975423583   -1.5307324410
  5         -5.4018428823   -1.3823489590    4.3950111904   -1.5301555648
  6         -5.4033571720   -1.3835805046    4.3936635548   -1.5298576834
  7         -5.4041480647   -1.3842324820    4.3929512000   -1.5297032953
  8         -5.4045641108   -1.3845769138    4.3925755232   -1.5296229456
  9         -5.4047838258   -1.3847587737    4.3923775340   -1.5295810042
 10         -5.4049001347   -1.3848548089    4.3922731819   -1.5295590658
 11         -5.4049618018   -1.3849055476    4.3922181562   -1.5295475724
 12         -5.4049945351   -1.3849323732    4.3921891206   -1.5295415432
 13         -5.4050119258   -1.3849465673    4.3921737867   -1.5295383767
 14         -5.4050211723   -1.3849540841    4.3921656816   -1.5295367119
 15         -5.4050260920   -1.3849580684    4.3921613935   -1.5295358358
 16         -5.4050287113   -1.3849601822    4.3921591228   -1.5295353742
 17         -5.4050301068   -1.3849613045    4.3921579192   -1.5295351307
 18         -5.4050308507   -1.3849619010    4.3921572806   -1.5295350022
 19         -5.4050312476   -1.3849622183    4.3921569415   -1.5295349343
 20         -5.4050314594   -1.3849623873    4.3921567612   -1.5295348984
 21         -5.4050315725   -1.3849624773    4.3921566653   -1.5295348794
 22         -5.4050316330   -1.3849625253    4.3921566143   -1.5295348693
Atom SCF converged after  22 iterations to a total energy of     -5.40503163

Atom SCF Calculation for H  : Z (AE atom) =   1 : Z (PS atom) =   1
Config String: 1s1
Orbitals (num,occ):  1     1.00
Orbitals   (num,l):  1        0
Real-space Grid (nr,dr,rmax): 1377    0.0065406977    9.0000000000
Spherical Bessel Basis (nsws,lmax,cutoff):   37    1  183.0099912382
Confining potential (l,width,scale):  0    3.0000000000  100.0000000000
  1         -0.3605254152   -0.2399954029    0.2820952946   -0.2424203210
  2         -0.4156854077   -0.2398249290    0.2871789324   -0.2464796203
  3         -0.4412552402   -0.2379720642    0.2899127187   -0.2499011370
  4         -0.4517265951   -0.2371980236    0.2908966173   -0.2514141636
  5         -0.4557775773   -0.2369735141    0.2911607883   -0.2519713623
  6         -0.4573363459   -0.2369240355    0.2912108681   -0.2521663171
  7         -0.4579443228   -0.2369187864    0.2912112833   -0.2522344454
  8         -0.4581858602   -0.2369215483    0.2912049187   -0.2522587615
  9         -0.4582834939   -0.2369242589    0.2912002081   -0.2522677042
 10         -0.4583235236   -0.2369258837    0.2911975892   -0.2522710965
 11         -0.4583401154   -0.2369267223    0.2911962825   -0.2522724192
 12         -0.4583470483   -0.2369271266    0.2911956643   -0.2522729467
 13         -0.4583499624   -0.2369273145    0.2911953803   -0.2522731607
 14         -0.4583511926   -0.2369274000    0.2911952521   -0.2522732486
 15         -0.4583517136   -0.2369274385    0.2911951948   -0.2522732850
 16         -0.4583519349   -0.2369274556    0.2911951693   -0.2522733002
 17         -0.4583520290   -0.2369274632    0.2911951581   -0.2522733066
Atom SCF converged after  17 iterations to a total energy of     -0.45835203

Atom SCF Calculation for Li : Z (AE atom) =   3 : Z (PS atom) =   3
Config String: 1s2 2s1 2p0
Orbitals (num,occ):  3     2.00 1.00 0.00
Orbitals   (num,l):  3        0    0    1
Real-space Grid (nr,dr,rmax): 1377    0.0065406977    9.0000000000
Spherical Bessel Basis (nsws,lmax,cutoff):   37    2  183.0099912382
Confining potential (l,width,scale):  0    3.0000000000  100.0000000000
Confining potential (l,width,scale):  1    3.0000000000  100.0000000000
  1         -6.0640888065   -4.6655401716    2.5388576516   -0.9989538799
  2         -6.9627542978   -4.0954079129    2.9808988108   -1.1965571426
  3         -7.2692687601   -3.8889996707    3.2029735703   -1.3193883705
  4         -7.3784440298   -3.8322099748    3.2868571989   -1.3711018151
  5         -7.4170278248   -3.8191968371    3.3144974220   -1.3911175539
  6         -7.4303549880   -3.8172386945    3.3228486489   -1.3986896266
  7         -7.4348052089   -3.8175483495    3.3251259310   -1.4015352495
  8         -7.4362242328   -3.8180607346    3.3256233205   -1.4026016384
  9         -7.4366459715   -3.8184145665    3.3256561549   -1.4029998726
 10         -7.4367560626   -3.8186169740    3.3256001574   -1.4031477379
 11         -7.4367765260   -3.8187239825    3.3255481763   -1.4032021548
 12         -7.4367751741   -3.8187782620    3.3255144587   -1.4032219192
 13         -7.4367707398   -3.8188051288    3.3254952336   -1.4032289600
 14         -7.4367680349   -3.8188156035    3.3254870176   -1.4032309087
 15         -7.4367661982   -3.8188217406    3.3254819951   -1.4032318132
 16         -7.4367650112   -3.8188253257    3.3254789583   -1.4032322224
 17         -7.4367642682   -3.8188274151    3.3254771375   -1.4032324006
 18         -7.4367638134   -3.8188286307    3.3254760529   -1.4032324736
 19         -7.4367635392   -3.8188293370    3.3254754103   -1.4032325004
 20         -7.4367633760   -3.8188297469    3.3254750310   -1.4032325080
 21         -7.4367632796   -3.8188299846    3.3254748079   -1.4032325082
Atom SCF converged after  21 iterations to a total energy of     -7.43676328

================================================================================
<<<<<<<<<<<<<<<<<<<< Starting ONETEP Geometry Optimisation >>>>>>>>>>>>>>>>>>>>>
================================================================================

 Geometry Optimisation: output file is "57/592nano.geom"
 
 Geometry Optimisation: write_hamiltonian parameter over-ridden to T
 
                           -------------------------------
                                     Cell Contents
                           -------------------------------
 
            xxxxxxxxxxxxxxxxxxxxxxxxxxxxxxxxxxxxxxxxxxxxxxxxxxxxxxxxxxxx
            x  Element    Atom      Absolute co-ordinates of atoms     x
            x            Number        x           y           z       x
            x----------------------------------------------------------x
            x    C         1       45.469091   50.714138   30.069697   x
            x    C         2       45.464113   50.602342   36.279125   x
            x    C         3       46.814314   53.061158   30.084349   x
            x    C         4       48.173359   50.624253   36.296745   x
            x    C         5       49.526710   48.381226   29.995489   x
            x    C         6       49.545790   48.263299   36.277692   x
            x    C         7       50.873713   50.730395   30.019913   x
            x    C         8       52.261318   48.273232   36.187996   x
            x    C         9       45.462743   55.402929   29.963952   x
            x    C        10       45.452134   55.304020   36.262947   x
            x    C        11       46.805315   57.745553   29.836255   x
            x    C        12       48.169061   55.323255   36.260441   x
            x    C        13       49.516270   53.068310   30.064208   x
            x    C        14       49.526027   52.972531   36.295321   x
            x    C        15       50.858388   55.413435   29.926416   x
            x    C        16       52.245122   52.981420   36.311372   x
            x    C        17       45.436466   50.476369   43.691143   x
            x    C        18       45.383217   50.414167   49.706113   x
            x    C        19       46.782746   52.819553   43.679301   x
            x    C        20       48.086687   50.410209   49.735745   x
            x    C        21       49.512578   48.125053   43.636024   x
            x    C        22       49.429687   48.067342   49.816295   x
            x    C        23       50.861728   50.478335   43.655584   x
            x    C        24       52.126540   48.063446   49.992560   x
            x    C        25       45.414786   55.170194   43.705468   x
            x    C        26       45.393503   55.093176   49.815436   x
            x    C        27       46.751841   57.517449   43.639761   x
            x    C        28       48.094394   55.090378   49.832362   x
            x    C        29       49.489221   52.822515   43.675204   x
            x    C        30       49.439369   52.748227   49.801904   x
            x    C        31       50.833550   55.163962   43.714872   x
            x    C        32       52.133237   52.745688   49.963167   x
            x    C        33       57.616144   48.420500   29.411931   x
            x    C        34       57.656636   48.292332   36.381941   x
            x    C        35       58.966106   50.768925   29.378530   x
            x    C        36       60.375723   48.301555   36.441339   x
            x    C        37       57.672096   48.142584   43.624765   x
            x    C        38       57.473591   48.054977   50.616581   x
            x    C        39       59.006044   50.515230   43.674878   x
            x    C        40       60.182114   48.055007   50.957348   x
            x    C        41       53.569778   50.742664   29.847276   x
            x    C        42       53.600911   50.637418   36.304717   x
            x    C        43       54.905467   53.088433   29.723943   x
            x    C        44       56.312413   50.641418   36.382260   x
            x    C        45       53.587558   50.490924   43.639619   x
            x    C        46       53.472947   50.400992   50.081355   x
            x    C        47       54.924656   52.846297   43.575345   x
            x    C        48       56.156623   50.395145   50.408603   x
            x    C        49       57.621338   43.761748   29.058952   x
            x    C        50       57.713804   43.596632   36.253097   x
            x    C        51       58.971934   46.082914   29.138972   x
            x    C        52       60.465658   43.596231   36.240223   x
            x    C        53       57.648948   43.429890   43.525151   x
            x    C        54       57.490971   43.382127   50.761741   x
            x    C        55       59.020672   45.795164   43.589828   x
            x    C        56       60.187569   43.377722   51.084004   x
            x    C        57       53.580194   46.070948   29.616118   x
            x    C        58       53.625556   45.909875   36.274159   x
            x    C        59       54.921664   48.408301   29.662169   x
            x    C        60       56.339454   45.920422   36.318361   x
            x    C        61       53.593435   45.783813   43.570683   x
            x    C        62       53.461874   45.721992   50.198175   x
            x    C        63       54.948852   48.136345   43.611804   x
            x    C        64       56.147442   45.726239   50.500934   x
            x    C        65       57.578143   57.767267   29.219256   x
            x    C        66       57.659323   57.681729   36.333516   x
            x    C        67       58.911146   60.124417   28.920219   x
            x    C        68       60.402600   57.679879   36.217741   x
            x    C        69       57.609978   57.551742   43.408782   x
            x    C        70       57.528676   57.406571   50.571596   x
            x    C        71       58.990898   59.934917   43.358999   x
            x    C        72       60.247693   57.388322   50.827382   x
            x    C        73       45.445269   64.731518   29.003989   x
            x    C        74       45.427307   64.706430   36.155539   x
            x    C        75       46.803106   67.070685   28.690980   x
            x    C        76       48.145577   64.715775   36.135251   x
            x    C        77       49.483791   62.397036   29.250825   x
            x    C        78       49.517258   62.380665   36.226932   x
            x    C        79       50.851496   64.758514   28.908887   x
            x    C        80       52.254878   62.371388   36.362094   x
[...]
 C   230 -- C   318       -0.07      0.00      5.46963
 C   270 -- C   456       -0.07      0.00      5.47054
 C    52 -- C   338       -0.07     -0.00      5.47080
 C   252 -- C   406       -0.08     -0.00      5.47327
 C    80 -- C   556       -0.06      0.00      5.47375
 C   346 -- C   376       -0.07      0.00      5.47407
 C   231 -- C   323       -0.07      0.00      5.47462
 C    34 -- C    52       -0.07      0.00      5.47496
 C     8 -- C   350       -0.06      0.00      5.47633
 C    76 -- C   564       -0.06      0.00      5.47731
 C    71 -- C    93       -0.07      0.00      5.47940
 C   423 -- C   489       -0.06      0.00      5.48594
 C     8 -- Li  648       -0.10     -0.00      5.48748
 C   222 -- C   374       -0.05      0.00      5.48777
 C    55 -- C   525       -0.06     -0.00      5.48782
 C   258 -- C   288       -0.06      0.00      5.48813
 H   131 -- Li  594       -0.03      0.00      5.48830
 C   212 -- C   230       -0.07      0.00      5.48909
 Li  625 -- Li  636       -0.15      0.00      5.48919
 H   582 -- Li  607       -0.02     -0.00      5.48994
 C   364 -- C   390       -0.06     -0.00      5.49202
 C   261 -- C   427       -0.06      0.00      5.49419
 H   141 -- Li  605       -0.02      0.00      5.49537
 C    39 -- C   506       -0.06     -0.00      5.49595
 C    80 -- C   538       -0.05      0.00      5.49608
 C   427 -- C   445       -0.06      0.00      5.49726
 C   214 -- C   276       -0.05      0.00      5.49882
 C   256 -- C   290       -0.06      0.00      5.49934
 C   338 -- C   380       -0.06      0.00      5.50101
 C   233 -- C   239       -0.06     -0.00      5.50301
 C    39 -- Li  628       -0.05     -0.00      5.50470
 C   343 -- C   506       -0.06      0.00      5.50477
 C   231 -- C   241       -0.05      0.00      5.50546
 C   188 -- C   286       -0.05     -0.00      5.50546
 H   165 -- Li  594       -0.03     -0.00      5.50551
 H   584 -- Li  623       -0.02     -0.00      5.50788
 H   592 -- Li  615       -0.02      0.00      5.50870
 C   323 -- Li  608       -0.05     -0.00      5.51068
 C   190 -- C   284       -0.06     -0.00      5.51166
 C   254 -- C   284       -0.06     -0.00      5.51270
 C   252 -- C   286       -0.05     -0.00      5.51282
 H   584 -- Li  630       -0.02      0.00      5.51329
 H   548 -- Li  596       -0.02     -0.00      5.52020
 C   518 -- Li  618       -0.04      0.00      5.52074
 C    68 -- Li  614       -0.05      0.00      5.52689
 H   590 -- Li  599        0.00      0.00      5.53009
 H   474 -- Li  610       -0.03      0.00      5.53108
 C   448 -- Li  645       -0.08      0.00      5.53682
 H   584 -- Li  602       -0.02     -0.00      5.54237
 H   572 -- Li  640       -0.02     -0.00      5.54564
 C    55 -- Li  628       -0.05      0.00      5.54949
 H   156 -- Li  620       -0.02     -0.00      5.55237
 H   154 -- Li  607       -0.02     -0.00      5.55493
 C   128 -- Li  601       -0.05      0.00      5.55639
 Li  599 -- Li  617       -0.18     -0.00      5.55767
 H   174 -- Li  611       -0.02     -0.00      5.56038
 H   496 -- Li  621       -0.02      0.00      5.56226
 H   500 -- Li  627       -0.02     -0.00      5.56374
 H   500 -- Li  641       -0.02     -0.00      5.56972
 C    93 -- Li  636       -0.04      0.00      5.57395
 H   544 -- Li  596       -0.02     -0.00      5.57449
 H   129 -- Li  619       -0.02      0.00      5.57492
 H   586 -- Li  616       -0.02      0.00      5.57671
 C   383 -- Li  646       -0.06     -0.00      5.58391
 H   162 -- Li  612       -0.02     -0.00      5.58508
 H   171 -- Li  613       -0.02      0.00      5.59304
 H   519 -- Li  601       -0.03     -0.00      5.59503
 C   362 -- Li  648       -0.07     -0.00      5.60164
 H   168 -- Li  598       -0.02     -0.00      5.60677
 H   535 -- Li  617       -0.02     -0.00      5.60783
 C   237 -- Li  647       -0.04     -0.00      5.61287
 H   530 -- Li  637       -0.02     -0.00      5.61572
 H   591 -- Li  612       -0.02     -0.00      5.62761
 H   586 -- Li  614       -0.01      0.00      5.63660
 H   591 -- Li  611       -0.02      0.00      5.64045
 H   585 -- Li  625        0.00     -0.00      5.64352
 C   444 -- Li  624       -0.03     -0.00      5.64432
 C   229 -- Li  647       -0.05      0.00      5.64747
 H   571 -- Li  593       -0.02      0.00      5.64928
 H   587 -- Li  604       -0.02     -0.00      5.65324
 C   495 -- Li  621       -0.04      0.00      5.65399
 H   370 -- Li  615       -0.01      0.00      5.66162
 H   578 -- Li  618       -0.02     -0.00      5.66167
 H   561 -- Li  618       -0.01      0.00      5.66224
 H   530 -- Li  617       -0.02      0.00      5.66435
 C   309 -- Li  606       -0.05     -0.00      5.66560
 H   589 -- Li  622       -0.02      0.00      5.66672
 H   400 -- Li  597       -0.02      0.00      5.66796
=============================================================


============== Orbital energy and occupancy information for spin 1 =============

      Total number of orbitals:    2329
        Occupancy sum (kernel):    1107.500000066
   Occupancy sum (eigenvalues):    1107.500000066
                 HOMO-LUMO gap:       0.000530064 Eh
                 Mid-gap level:      -0.076143529 Eh

                        Orbital | Energy (Eh) | Occupancy
                            1    -1.852116571   1.0000000
                        .......   ...........   .........
                         1099    -0.093266578   0.9935985
                         1100    -0.082495754   0.8380782
                         1101    -0.081927909   0.8122334
                         1102    -0.081381649   0.7845073
                         1103    -0.080780476   0.7507501
                         1104    -0.079576239   0.6730431
                         1105    -0.079300999   0.6536963
                         1106    -0.078808634   0.6177713
                         1107    -0.077979654   0.5543108
                         1108    -0.076408561   0.4308832
                        ....... -- gap at 0K -- .........
                         1109    -0.075878497   0.3903832
                         1110    -0.075505477   0.3627316
                         1111    -0.074878357   0.3182666
                         1112    -0.074692604   0.3057130
                         1113    -0.074416142   0.2874807
                         1114    -0.073764782   0.2472707
                         1115    -0.071657922   0.1444833
                         1116    -0.070545373   0.1062305
                         1117    -0.068916449   0.0663513
                         1118    -0.067190601   0.0395779
                        .......   ...........   .........
                         2329     0.770858276   0.0000000

================================================================================

============== Orbital energy and occupancy information for spin 2 =============

      Total number of orbitals:    2329
        Occupancy sum (kernel):    1107.499999932
   Occupancy sum (eigenvalues):    1107.499999932
                 HOMO-LUMO gap:       0.001571093 Eh
                 Mid-gap level:      -0.077194108 Eh

                        Orbital | Energy (Eh) | Occupancy
                            1    -1.852116571   1.0000000
                        .......   ...........   .........
                         1098    -0.094075584   0.9950356
                         1099    -0.093266577   0.9935985
                         1100    -0.082495754   0.8380781
                         1101    -0.081927908   0.8122334
                         1102    -0.081381649   0.7845073
                         1103    -0.080780475   0.7507501
                         1104    -0.079576239   0.6730431
                         1105    -0.079300999   0.6536963
                         1106    -0.078808634   0.6177712
                         1107    -0.077979654   0.5543107
                        ....... -- gap at 0K -- .........
                         1108    -0.076408561   0.4308832
                         1109    -0.075878497   0.3903832
                         1110    -0.075505476   0.3627316
                         1111    -0.074878357   0.3182666
                         1112    -0.074692605   0.3057131
                         1113    -0.074416142   0.2874807
                         1114    -0.073764782   0.2472707
                         1115    -0.071657922   0.1444833
                         1116    -0.070545373   0.1062305
                         1117    -0.068916449   0.0663513
                        .......   ...........   .........
                         2329     0.770858276   0.0000000

================================================================================

===================== Writing canonical molecular orbitals =====================
    Spin 1
| Orbital  Energy (eV)  Norm     |
| HOMO     -2.07918275  1.000000 | Writing "57/592nano_HOMO_UP.cube" ... done
Writing "57/592nano_HOMO_UP.dx" ... done
| LUMO     -2.06475897  1.000000 | Writing "57/592nano_LUMO_UP.cube" ... done
Writing "57/592nano_LUMO_UP.dx" ... done
================================================================================

===================== Writing canonical molecular orbitals =====================
    Spin 2
| Orbital  Energy (eV)  Norm     |
| HOMO     -2.12193436  1.000000 | Writing "57/592nano_HOMO_DN.cube" ... done
Writing "57/592nano_HOMO_DN.dx" ... done
| LUMO     -2.07918274  1.000000 | Writing "57/592nano_LUMO_DN.cube" ... done
Writing "57/592nano_LUMO_DN.dx" ... done
================================================================================

================== Local Density of States (LDOS) calculation ==================
Writing "57/592nano_UP_LDOS.txt" ...  done
================================================================================

================== Local Density of States (LDOS) calculation ==================
Writing "57/592nano_DN_LDOS.txt" ...  done
================================================================================
 
=============== Density of States (DOS) calculation for UP spin ================
Writing "57/592nano_UP_DOS.txt" ...  done
================================================================================
 
============== Density of States (DOS) calculation for DOWN spin ===============
Writing "57/592nano_DN_DOS.txt" ...  done
================================================================================
 
Writing bands to file "57/592nano.val_bands" ... done
 
================ Projected Density of States (pDOS) calculation ================
 
Constructing AM resolved functions  ...... done
Writing NGWF plot files in formats: CUBE DX ...  done
 
Performing overlap integrals ...  done
 
Computing pDOS weights ...  done
 
All bands spilling parameter =   3.04 %
Occupancy-weighted spilling parameter =   0.79 %
 
 => Outputting data for OptaDOS <=
 
Writing pDOS weights to file "57/592nano.val_pdos_bin" ... done
 
Writing band gradients to file "57/592nano.val_dome_bin" ... done
 
Writing Castep output cell file to "57/592nano-out.cell" ... done
 
 => Computing Gaussian smeared pDOS for UP spin<= 
Writing "57/592nano_UP_PDOS.txt" ...  done
 
 => Computing Gaussian smeared pDOS for DOWN spin<= 
Writing "57/592nano_DN_PDOS.txt" ...  done
 
 => Computing Occupancy-weighted Gaussian smeared pDOS for UP spin<= 
Writing "57/592nano_occ_UP_PDOS.txt" ...  done
  => Band centres for UP spin channel: 
 S band centre of group 1:  -20.254203 eV
 P band centre of group 1:   -8.376628 eV
  Band centres for UP spin channel done. <= 
  => Integrated number of electrons in each AM band for UP spin channel: 
 S num electrons of group 1:  321.549268
 P num electrons of group 1:  777.195112
  Integrated number of electrons for UP spin channel done. <= 
 
 => Computing Occupancy-weighted Gaussian smeared pDOS for DOWN spin<= 
Writing "57/592nano_occ_DN_PDOS.txt" ...  done
  => Band centres for DOWN spin channel: 
 S band centre of group 1:  -20.254203 eV
 P band centre of group 1:   -8.376628 eV
  Band centres for DOWN spin channel done. <=
  => Integrated number of electrons in each AM band for DOWN spin channel: 
 S num electrons of group 1:  321.549268
 P num electrons of group 1:  777.195112
  Integrated number of electrons for DOWN spin channel done. <=
================================================================================

================================= Core Density =================================
               Core den box size:   21 x  21 x  21
================================================================================
======================= Empirical dispersion information =======================
Model : Grimme D2
================================================================================

------------------------------ TIMING INFORMATION ------------------------------
AVERAGE TIME:   41225.172s on    160 node(s)                                    
TOTAL TIME:     41225.209s on    160 node(s)                                    
================= AVERAGE TIMINGS FROM ALL NODES (CUMULATIVE) ==================
|| TAG                                    #calls    cpu time   %total  Gflops ||
|| linalg_invert_sym_matrix             :     5        0.00s   0.000%  ------ || (1 nodes only)
|| work_imbalance                       :     1        0.00s   0.000%  ------ ||
|| paw_sphere_density_on_grid           :     1        0.01s   0.000%  ------ ||
|| ewald_calculate_forces_realspace     :     7        0.02s   0.000%  ------ ||
|| sparse_set_to_garbage                :   570        0.03s   0.000%  ------ ||
|| ngwfs_initialise_from_radial         :     2        0.04s   0.000%  ------ ||
|| paw_tcore_density                    :     7        0.06s   0.000%  ------ ||
|| basis_extract_function_from_box      :  1106        0.07s   0.000%  ------ ||
|| paw_dij_hartree                      :  2305        0.09s   0.000%  ------ ||
|| paw_dataset_init                     :     3        0.33s   0.001%  ------ ||
|| paw_tcore_hartree_on_grid            :     7        0.56s   0.001%  ------ ||
|| augmentation_density_forces          :     7        0.63s   0.002%  ------ ||
|| ewald_calculate_energy               :     7        0.93s   0.002%  ------ ||
|| dense_normal_eigensolve              :     1        1.33s   0.003%  ------ ||
|| restart_hamiltonian_read             :     6        1.42s   0.003%  ------ ||
|| density_init_guess_real              :     7        1.83s   0.004%  ------ ||
|| ewald_calculate_forces_recipspace    :     7        2.30s   0.006%  ------ ||
|| ewald_calculate_forces               :     7        2.42s   0.006%  ------ ||
|| paw_nlcc_calculate_forces            :     7        2.81s   0.007%  ------ ||
|| restart_hamiltonian_write            :    42        3.28s   0.008%  ------ ||
|| pseudo_make_structure_factor         :     7        3.95s   0.010%  ------ ||
|| restart_kernel_write                 :    42        4.34s   0.011%  ------ ||
|| integrals_grad                       :     7        5.76s   0.014%  ------ ||
|| nonsc_forces_ngwfs_calc              :     7        5.78s   0.014%  ------ ||
|| restart_ngwfs_tightbox_input         :     6        6.05s   0.015%  ------ ||
|| sparse_init                          :     7        6.45s   0.016%  ------ ||
|| sw_init                              :     1        7.55s   0.018%  ------ ||
|| paw_tcore_hartree_calc_forces        :     7        8.23s   0.020%  ------ ||
|| paw_species_calc_proj_prec_mat       :     7       15.23s   0.037%  ------ ||
|| sparse_embed_hotelling_invert_embed  :    68       20.78s   0.050%  ------ ||
|| ngwf_gradient_coeffs                 :    35       22.65s   0.055%  ------ ||
|| fourier_apply_box_pair               :  2598       30.24s   0.073%  2.270k ||
|| augmentation_screen_dij              :  1739       33.92s   0.082%  ------ ||
|| projectors_func_grad_ovlp_box        :    21       35.09s   0.085%  ------ ||
|| aug_nl_calculate_forces              :     7       42.75s   0.104%  ------ ||
|| projectors_init_fftbox_recip         :   237       86.66s   0.210%  ------ ||
|| hartree_on_grid                      :  1722       87.03s   0.211%  ------ ||
|| basis_copy_function_to_box           : 68341       90.58s   0.220%  ------ ||
|| integrals_kinetic                    :    68       98.20s   0.238%  ------ ||
|| projectors_func_ovlp_box             :    69      103.80s   0.252%  ------ ||
|| function_ops_brappd_ketppd           :   132      105.76s   0.257%  ------ ||
|| paw_dij_xc                           :  2305      111.19s   0.270%  ------ ||
|| eigenstates_pdos                     :     1      132.83s   0.322%  ------ ||
|| forces_calculate                     :     7      191.29s   0.464%  ------ ||
|| hamiltonian_energy_components        :     9      243.45s   0.591%  ------ ||
|| sparse_trace                         : 42874      245.73s   0.596%  ------ ||
|| eigenstates_calculate                :     1      264.47s   0.642%  ------ ||
|| augmentation_density_on_grid         :  1723      287.61s   0.698%  ------ ||
|| fourier_apply_cell_forward           : 15553      311.15s   0.755% 173.981 ||
|| fourier_apply_cell_backward          : 15553      322.56s   0.782% 167.826 ||
|| aug_nonlocal_mat                     :  2263      351.63s   0.853%  ------ ||
|| restart_ngwfs_tightbox_output        :    29      375.45s   0.911%  ------ ||
|| basis_dot_function_with_box          : 14.87M     411.12s   0.997%  ------ ||
|| xc_energy_potential                  :  1728      643.81s   1.562%  ------ ||
|| cell_grid_extract_box_real           : 39243     1054.48s   2.558%  ------ ||
|| sparse_product                       : 37814     1114.46s   2.703%  ------ ||
|| dense_eigensolve                     :  3274     1249.98s   3.032%  ------ ||
|| basis_add_function_to_box            : 45.26M    1469.40s   3.564%  ------ ||
|| cell_grid_deposit_box_real           : 127.7k    1505.79s   3.653%  ------ ||
|| projectors_gradient_batch            :    70     1636.01s   3.968%  ------ ||
|| properties_calculate                 :     1     1831.12s   4.442%  ------ ||
|| integrals_locpot_mat_els_batch       :  2282     1979.15s   4.801%  ------ ||
|| projectors_grad_precond_batch        :    70     2292.25s   5.560%  ------ ||
|| density_fftbox_deposit_to_cell       : 58582     2596.87s   6.299%  ------ ||
|| density_batch_row_sums               :  3446     3727.00s   9.041%  ------ ||
|| potential_apply_to_ngwf_batch        :  2282     4283.17s  10.390%  ------ ||
|| edft_diag_ngwf_ham                   :  3272     4283.19s  10.390%  ------ ||
|| ngwf_gradient_build_batch            :    70     4345.93s  10.542%  ------ ||
|| ngwf_gradient_batch                  :    70     4736.14s  11.488%  ------ ||
|| fourier_apply_box                    : 217.2k    5041.17s  12.228%  3.733k ||
|| density_fftbox_interpolate_multiply  : 58582     5834.45s  14.153%  ------ ||
|| integrals_locpot_dbl_grid            :  1141     6289.54s  15.257%  ------ ||
|| ngwf_gradient_lnv                    :    35     6677.03s  16.196%  ------ ||
|| edft_apply_smearing_operator         :  1636     7221.36s  17.517%  ------ ||
|| density_batch_interp_deposit         :  3446    10390.37s  25.204%  ------ ||
|| density_on_dbl_grid                  :  1723    14816.82s  35.941%  ------ ||
|| hamiltonian_lhxc_calculate           :  1705    16500.09s  40.024%  ------ ||
|| edft_calculate                       :    35    30558.18s  74.125%  ------ ||
|| ngwf_cg_optimise                     :     7    39049.78s  94.723%  ------ ||
|| total_time                           :     1    41225.17s 100.000%  ------ ||
================================================================================
Overhead of generating timer report: 
- 0 ms averaging over threads,
- 34 ms ensuring consistency across MPI ranks,
- 0 ms printing in order.

Job completed: 07-11-2020 03:36 (-0000)

