 +---------------------------------------------------------------+
 |                                                               |
 |        ####### #     # ####### ####### ####### ######         |
 |        #     # ##    # #          #    #       #     #        |
 |        #     # # #   # #          #    #       #     #        |
 |        #     # #  #  # #####      #    #####   ######         |
 |        #     # #   # # #          #    #       #              |
 |        #     # #    ## #          #    #       #              |
 |        ####### #     # #######    #    ####### #              |
 |                                                               |
 |        Linear-Scaling Ab Initio Total Energy Program          |
 |                                                               |
 |          Release for academic collaborators of ODG            |
 |                                             Version 6.1.3.6   |
 |                                                               |
 +---------------------------------------------------------------+
 |                                                               |
 |  Authors:                                                     |
 |  Jacek Dziedzic, Peter D. Haynes, Nicholas D. M. Hine,        |
 |  Arash A. Mostofi, Mike C. Payne and Chris-Kriton Skylaris    |
 |                                                               |
 |  Contributors:                                                |
 |  J. Aarons, L. Andrinopoulos, P. W. Avraam, R. A. Bell,       |
 |  A. Bhandari, G. A. Bramley, R. J. Charlton, S. J. Clark,     |
 |  R. J. Clements, G. C. Constantinescu, F. Corsetti,           |
 |  N. Corsini, O. Dieguez, S. M. M. Dubois, K. K. B. Duff,      |
 |  J. M. Escartin, A. Greco, H. Helal, Q. O. Hill, L. P. Lee,   |
 |  J.-H. Li, E. B. Linscott, G. Moynihan, D. D. O`Regan,        |
 |  O. K. Okan, M. J. S. Phipps, C. J. Pickard,                  |
 |  J. C. A. Prentice, M. I. J. Probert, L. E. Ratcliff,         |
 |  M. Robinson, A. Ruiz Serrano, J. S. Spencer, E. W. Tait,     |
 |  G. Teobaldi, D. Turban, V. Vitale, K. A. Wilkinson,          |
 |  C. Weber, J. C. Womack, N. Yeung and T. J. Zuehlsdorff       |
 |                                                               |
 |                                   Copyright (c) 2004-2021     |
 |                                                               |
 |  Please cite:                                                 |
 |  "The ONETEP linear-scaling density functional theory program"|
 |   J. Chem. Phys. 152(17) 174111 (2020)                        |
 |                                                               |
 |          in all publications arising from your use of ONETEP. |
 |                                                               |
 +---------------------------------------------------------------+
 |                                                               |
 |   ONETEP is based on developments described in the following  |
 |   publications:                                               |
 |                                                               |
 |  "Nonorthogonal generalized Wannier function pseudopotential  |
 |   plane-wave method".                                         |
 |   C.-K. Skylaris, A. A. Mostofi, P. D. Haynes, O. Dieguez,    |
 |   M. C. Payne.                                                |
 |   Phys. Rev. B 66 035119 (2002).                              |
 |                                                               |
 |  "Preconditioned iterative minimization for linear-scaling    |
 |   electronic structure calculations".                         |
 |   A. A. Mostofi, P. D. Haynes, C.-K. Skylaris, M. C. Payne.   |
 |   J. Chem. Phys. 119(17), pp.8842-8848 (2003).                |
 |                                                               |
 |  "Total-energy calculations on a real space grid with         |
 |   localized functions and a plane-wave basis".                |
 |   A. A. Mostofi, C.-K. Skylaris, P. D. Haynes, M. C. Payne.   |
 |   Comput. Phys. Commun. 147, pp.788-802 (2002).               |
 |                                                               |
 |  "Accurate kinetic energy evaluation in electronic structure  |
 |   calculations with localized functions on real space grids"  |
 |   C.-K. Skylaris, A. A. Mostofi, P. D. Haynes, C. J. Pickard, |
 |   M. C. Payne.                                                |
 |   Comput. Phys. Commun. 140, pp.315-322 (2001).               |
 |                                                               |
 |  "Accurate ionic forces and geometry optimization in linear-  |
 |   scaling density-functional theory with local orbitals"      |
 |   N. D. M. Hine, M. Robinson, P. D. Haynes, C.-K. Skylaris,   |
 |   M. C. Payne, and A. A. Mostofi.                             |
 |   Phys. Rev. B 83 195102 (2011).                              |
 |                                                               |
 +---------------------------------------------------------------+

Job started: 06-10-2021 09:26 (+0100)
 
Reading parameters from file "24/592nano.dat" ...... done

If your calculation crashes here, before "Checking processes and threads..."
is displayed, then your stack size is insufficient.
If so, use "ulimit -s unlimited" at runtime.
You can disable this check with "check_stack_size F".

Checking processes and threads...
   Determining the default number of threads...
      No default threads set at compilation time: defaulting to 1.
      OpenMP library call suggests 4 threads.
      Hybrid MPI-OpenMP compilation detected.
      Number of MPI processes > 1.
      OMP_NUM_THREADS environment variable present and
      its value matches the one obtained from the OpenMP library call.
      Using this value as default.
      Default threads: 4
      Default applies to threads_max and threads_num_fftboxes.
      Settings in the input file override this default.
   ... done

   Running with 160 MPI processes.
   There are 10 MPI processes running on the same node as the root process.
   Each MPI process is using: 
               1 threads for simulation cell FFTs.
               1 threads for parallel FFT box operations.
               4 threads for loops over batched FFT box operations.
               4 threads in other parallel regions.
... done

Basic input checks...
Resetting ngwf_cg_rotate to TRUE for EDFT calculations
... done

Reading geometry and species blocks from file "24/592nano.dat" ...    
  Number of PPD points along a3 set to 1.  This is 
  the default value, it may have been provided also in the input file.
... done
 Writing xyz coordinates to file "24/592nano.xyz" ... done


--------------------------------------------------------------------------------
---------------------------------- INPUT FILE ----------------------------------
--------------------------------------------------------------------------------

task : singlepoint                                                              
geom_lbfgs T                                                                    
do_properties : true                                                            
dx_format T                                                                     
edft T                                                                          
edft_spin_fix 3                                                                 
output_detail VERBOSE                                                           
timings_level 3                                                                 
write_xyz T                                                                     
edft_update_scheme: pulay_mix                                                   
edft_ham_diis_size: 10                                                          
edft_trial_step: 0.382                                                          
xc_functional OPTPBE                                                            
cutoff_energy 830 eV                                                            
paw T                                                                           
geom_precond_type EXP                                                           
geom_disp_tol 0.06 bohr                                                         
geom_energy_tol 6E-6 hartree                                                    
geom_force_tol 0.012 "ha/bohr"                                                  
geom_max_iter 25                                                                
EDFT_MAXIT 30                                                                   
pdos_max_l = 2                                                                  
dos_smear  0.1 eV                                                               
popn_calculate T                                                                
PDOS_PSEUDOATOMIC T                                                             
PDOS_REDUCE_SWS F                                                               
PDOS_CONSTRUCT_BASIS F                                                          
PDOS_LOWDIN T                                                                   
PDOS_ORTH_ATOM_BLOCKS F                                                         
PDOS_LCAO_OPTIMIZE F                                                            
pdos_optados_output T                                                           
homo_plot 0                                                                     
lumo_plot 0                                                                     
homo_dens_plot -1                                                               
lumo_dens_plot -1                                                               
%BLOCK SPECIES                                                                  
C C 6 4 9.0                                                                     
H H 1 1 9.0                                                                     
Li Li 3 5 9.0                                                                   
%ENDBLOCK SPECIES                                                               
%BLOCK SPECIES_POT                                                              
C "~/pp/paw/c_pbe_abinit.paw"                                                   
H "~/pp/paw/h_pbe_abinit.paw"                                                   
Li "~/pp/paw/li_pbe_abinit.paw"                                                 
%ENDBLOCK SPECIES_POT                                                           
%BLOCK SPECIES_ATOMIC_SET                                                       
C "SOLVE conf=2s2 2p2"                                                          
H "SOLVE conf=1s1"                                                              
Li "SOLVE conf=1s2 2s1 2p0"                                                     
%ENDBLOCK SPECIES_ATOMIC_SET                                                    
%BLOCK SPECIES_LDOS_GROUPS                                                      
C                                                                               
H                                                                               
Li                                                                              
%ENDBLOCK SPECIES_LDOS_GROUPS                                                   
%BLOCK LATTICE_CART                                                             
94.486315650000      0.000000000000       0.000000000000                        
0.000000000000       94.486315650000      0.000000000000                        
0.000000000000       0.000000000000       94.486315650000                       
%ENDBLOCK LATTICE_CART                                                          
%BLOCK POSITIONS_ABS                                                            
C 42.851002 41.401976 31.785872                                                 
C 38.799165 43.710544 31.874930                                                 
C 41.515873 39.060268 31.569401                                                 
C 45.539428 41.415176 31.778885                                                 
C 37.468479 41.366221 31.668098                                                 
C 37.441439 46.032517 31.944335                                                 
C 54.920043 48.445029 31.457502                                                 
C 54.902024 53.114355 31.397743                                                 
C 53.590702 46.111896 31.585665                                                 
C 38.700111 57.708793 31.835006                                                 
C 42.719879 60.073704 31.742704                                                 
C 37.377332 55.369879 31.907103                                                 
C 53.549587 55.446280 31.450680                                                 
C 45.415516 60.092417 31.685192                                                 
C 46.896223 39.084754 31.575425                                                 
C 41.493508 43.726807 31.931655                                                 
C 34.741816 46.016687 31.820311                                                 
C 50.919516 41.428757 31.619366                                                 
C 53.574460 50.782333 31.586656                                                 
C 34.708939 50.683132 31.897089                                                 
C 41.398956 57.734224 31.891796                                                 
C 38.826712 39.047347 31.507371                                                 
C 54.939582 43.775011 31.428644                                                 
C 49.567320 43.765282 31.795118                                                 
C 37.411890 50.702822 32.016254                                                 
C 49.495744 57.787393 31.656568                                                 
C 34.676571 55.346228 31.782000                                                 
C 57.603276 48.448397 31.140056                                                 
C 50.808684 60.116188 31.310361                                                 
C 57.590414 53.107150 31.068117                                                 
C 37.330276 60.031885 31.644869                                                 
C 54.872736 57.780203 31.118550                                                 
C 50.861331 55.451748 31.699410                                                 
C 46.795397 57.773683 31.810610                                                 
C 41.338431 62.397764 31.559204                                                 
C 46.731032 62.434206 31.364177                                                 
C 46.877436 43.754520 31.889562                                                 
C 50.901358 46.102005 31.791229                                                 
C 38.771008 48.378383 32.044047                                                 
C 38.740404 53.044660 32.022885                                                 
C 49.582766 39.095550 31.523350                                                 
C 33.385765 48.339433 31.812563                                                 
C 42.876583 36.741880 31.341412                                                 
C 53.606029 41.442067 31.471288                                                 
C 34.775985 41.358012 31.543725                                                 
C 33.353239 53.006396 31.789376                                                 
C 45.555895 36.753585 31.361586                                                 
C 33.422009 43.670622 31.632855                                                 
C 58.929096 50.778972 30.932652                                                 
C 53.502043 60.093178 31.002401                                                 
C 49.412301 62.433811 31.133566                                                 
C 38.649034 62.372478 31.514954                                                 
C 50.885433 50.777875 31.820952                                                 
C 42.769996 55.410687 32.006193                                                 
C 42.827054 46.067952 32.039184                                                 
C 57.624634 43.792000 31.171669                                                 
C 58.946240 46.113777 31.005524                                                 
C 33.321537 57.670089 31.594820                                                 
C 34.636414 60.000435 31.526196                                                 
C 58.918598 55.433661 30.810450                                                 
C 49.531079 53.111610 31.881183                                                 
C 45.468631 55.430467 31.979564                                                 
C 57.566327 57.755765 30.812702                                                 
C 49.550781 48.436402 31.909100                                                 
C 41.439703 53.066094 32.071011                                                 
C 42.651487 64.738885 31.325385                                                 
C 41.468408 48.396397 32.090451                                                 
C 45.522186 46.084253 32.013658                                                 
C 45.336228 64.754975 31.189340                                                 
C 37.488314 36.695790 31.228714                                                 
C 46.833049 53.099781 32.008723                                                 
C 42.802329 50.739820 32.101877                                                 
C 46.858315 48.426140 32.024994                                                 
C 41.519143 34.399273 31.060255                                                 
C 33.451679 38.991113 31.288072                                                 
C 50.953511 36.748908 31.311045                                                 
C 54.969115 39.088790 31.294073                                                 
C 30.664494 48.326201 31.646727                                                 
C 46.939396 34.418901 31.115455                                                 
C 30.632874 52.981048 31.623726                                                 
C 30.702166 43.672641 31.473736                                                 
C 45.500743 50.758558 32.073368                                                 
C 61.631519 50.778531 30.587277                                                 
C 38.880884 34.420388 31.019830                                                 
C 34.814209 36.734898 31.145294                                                 
C 37.269849 64.713484 31.300762                                                 
C 58.977271 41.431340 31.038578                                                 
C 54.816973 62.410115 30.442297                                                 
C 50.705400 64.768314 30.581673                                                 
C 61.654597 46.136658 30.700305                                                 
C 30.602794 57.627415 31.436359                                                 
C 61.615045 55.414327 30.472367                                                 
C 33.275414 62.349873 31.313290                                                 
C 41.260381 67.068992 31.138434                                                 
C 58.887570 60.075621 30.403586                                                 
C 46.640337 67.087451 30.772645                                                 
C 49.572418 34.455297 31.137370                                                 
C 29.397636 45.960549 31.516447                                                 
C 62.926041 48.431744 30.496471                                                 
C 53.612275 36.802864 31.253054                                                 
C 62.911067 53.103477 30.387425                                                 
C 57.648517 39.162245 31.139943                                                 
C 29.361279 50.644699 31.590069                                                 
C 42.942532 32.092358 30.820083                                                 
C 34.590916 64.627789 31.227746                                                 
C 38.610712 67.010745 31.163081                                                 
C 29.331739 55.324309 31.476422                                                 
C 30.732560 39.046486 31.168365                                                 
C 45.535255 32.103761 30.851889                                                 
C 29.427052 41.273462 31.262147                                                 
C 57.478549 62.341627 30.196312                                                 
C 53.441043 64.770710 30.486964                                                 
C 49.298135 67.034194 30.444397                                                 
H 37.854938 32.619734 30.798277                                                 
H 33.791130 34.930401 30.931002                                                 
C 62.965674 43.751793 30.630112                                                 
C 61.688773 41.509619 30.800605                                                 
C 62.899224 57.782715 30.223715                                                 
C 29.286985 60.001260 31.247453                                                 
C 30.558488 62.255126 31.192142                                                 
C 61.580139 60.025451 30.173955                                                 
C 42.639122 69.388287 30.882786                                                 
C 45.230256 69.391254 30.671952                                                 
H 64.981310 53.101733 30.137794                                                 
H 64.998038 48.437053 30.264431                                                 
H 50.625193 32.663008 30.981989                                                 
H 41.896451 30.305259 30.607293                                                 
H 29.721280 37.231849 30.982813                                                 
H 27.315696 45.948151 31.413002                                                 
H 37.561879 68.807493 31.017457                                                 
H 33.537457 66.419552 31.068809                                                 
H 58.690890 37.359359 31.050456                                                 
H 27.250635 55.308899 31.373304                                                 
H 46.608010 30.328476 30.677608                                                 
H 54.659907 35.005247 31.130613                                                 
H 27.345386 41.277590 31.163577                                                 
H 27.280024 50.632005 31.484775                                                 
H 58.485505 64.104754 29.688993                                                 
H 50.276965 68.800013 29.881498                                                 
H 65.039207 43.780075 30.434030                                                 
H 62.711907 39.696852 30.747407                                                 
H 54.354735 66.409202 29.550988                                                 
H 64.972600 57.770724 30.028056                                                 
H 29.519082 64.050977 31.043764                                                 
H 27.209131 59.962358 31.153363                                                 
H 41.585007 71.184735 30.804701                                                 
H 62.577513 61.836595 29.930985                                                 
H 46.271676 71.179860 30.413875                                                 
C 44.145581 38.977477 37.481064                                                 
C 36.051439 43.653560 37.651530                                                 
C 40.099846 41.305331 37.631058                                                 
C 41.458482 38.981899 37.436100                                                 
C 49.543743 38.975388 37.298233                                                 
C 37.400513 41.330070 37.531304                                                 
C 48.199152 41.313548 37.562953                                                 
C 53.612919 41.295354 37.297489                                                 
C 45.500570 41.312178 37.649589                                                 
C 52.273229 43.635764 37.503716                                                 
C 36.051334 48.335766 37.837610                                                 
C 37.398279 45.993439 37.819491                                                 
C 45.476532 36.635282 37.246429                                                 
C 36.047805 53.012462 37.857783                                                 
C 33.349783 48.337658 37.681135                                                 
C 53.615293 45.976702 37.469113                                                 
C 52.246989 38.953832 37.180244                                                 
C 33.350850 53.011604 37.698935                                                 
C 56.306086 45.974266 37.174273                                                 
C 33.341047 43.653766 37.492531                                                 
C 49.561163 43.646921 37.635412                                                 
C 37.407760 55.353393 37.869621                                                 
C 48.186496 36.623029 37.190934                                                 
C 41.444229 43.650361 37.795184                                                 
C 37.400167 50.673404 37.902588                                                 
C 36.071771 57.689103 37.701034                                                 
C 56.328074 41.292928 37.127148                                                 
C 56.308368 50.658326 37.144218                                                 
C 53.618747 50.657342 37.475301                                                 
C 53.643262 55.336464 37.441077                                                 
C 31.998928 50.676498 37.609921                                                 
C 45.563581 60.045903 37.672101                                                 
C 41.478919 57.690987 37.780066                                                 
C 57.664011 43.629792 37.015623                                                 
C 31.989933 45.981337 37.526839                                                 
C 52.302420 57.680993 37.496426                                                 
C 44.149437 43.652003 37.788482                                                 
C 48.269479 60.081970 37.588475                                                 
C 40.099048 45.989859 37.864524                                                 
C 40.127305 60.029703 37.619682                                                 
C 49.591604 57.706599 37.645543                                                 
C 52.269623 48.320937 37.587778                                                 
C 57.636331 48.314298 36.927119                                                 
C 40.118530 55.357865 37.879516                                                 
C 56.334426 55.330802 37.164734                                                 
C 52.281058 53.001142 37.578211                                                 
C 44.195863 57.700109 37.771185                                                 
C 40.099790 36.631444 37.116481                                                 
C 32.001776 55.361462 37.543877                                                 
C 44.192916 62.370259 37.518066                                                 
C 36.036420 38.981364 37.222993                                                 
C 33.356130 57.683278 37.528956                                                 
C 37.428298 60.010654 37.557959                                                 
C 57.641955 52.988692 36.947683                                                 
C 41.489351 62.359262 37.439659                                                 
C 48.212458 45.984875 37.757135                                                 
C 40.108601 50.676032 37.921148                                                 
C 48.237579 55.366033 37.752087                                                 
C 44.123216 34.289654 36.973332                                                 
C 53.617519 36.576582 36.956726                                                 
C 53.648416 60.030341 37.396669                                                 
C 49.567171 48.327924 37.734095                                                 
C 49.606790 62.420087 37.520143                                                 
C 41.466820 53.014082 37.902496                                                 
C 45.530558 55.355722 37.814255                                                 
C 49.580374 53.011171 37.728677                                                 
C 45.507119 45.988290 37.825747                                                 
C 41.452885 48.334098 37.899916                                                 
C 31.988451 41.310957 37.212330                                                 
C 37.398998 36.654807 37.264964                                                 
C 49.552330 34.259331 36.981770                                                 
C 41.444148 34.344650 36.986610                                                 
C 57.698978 57.668025 37.049596                                                 
C 57.687191 38.934086 36.914945                                                 
C 33.368522 39.003062 37.172923                                                 
C 45.546241 64.721445 37.359479                                                 
C 44.171727 53.019193 37.864840                                                 
C 48.222353 50.670029 37.788674                                                 
C 29.253109 50.669659 37.398061                                                 
C 44.158192 48.332828 37.872983                                                 
C 60.349103 48.312846 36.506264                                                 
C 52.313898 62.399450 37.457069                                                 
C 45.512278 50.670944 37.857751                                                 
C 60.385380 43.653327 36.694874                                                 
C 29.263541 45.988812 37.338751                                                 
C 56.375243 60.014120 37.280885                                                 
C 56.314283 36.616095 36.880202                                                 
C 29.286298 55.352722 37.316471                                                 
C 48.241769 64.744070 37.432932                                                 
C 60.334390 52.984696 36.467383                                                 
C 52.240218 34.286915 37.014305                                                 
C 36.080448 62.367052 37.250566                                                 
C 32.010905 60.024234 37.229945                                                 
C 40.141625 64.717816 37.136113                                                 
C 45.505552 31.991552 36.708288                                                 
C 27.957132 53.013619 37.310255                                                 
C 61.664078 45.996759 36.488871                                                 
C 27.956063 48.326325 37.362541                                                 
C 61.641224 50.657980 36.393181                                                 
C 48.142174 31.964884 36.782669                                                 
C 29.290113 41.359740 37.139145                                                 
C 33.393678 62.349033 37.266244                                                 
C 60.375975 39.008769 36.744519                                                 
C 37.450286 64.673596 37.180717                                                 
C 60.409360 57.659301 36.665265                                                 
H 36.381149 34.909510 36.720803                                                 
H 40.401640 32.575195 36.641806                                                 
C 61.689556 41.294525 36.601447                                                 
C 44.174080 67.078806 37.161610                                                 
H 32.343959 37.227432 36.758333                                                 
C 61.670970 55.310345 36.399184                                                 
C 27.971311 43.623653 37.246911                                                 
C 41.493567 67.017376 37.099103                                                 
H 57.334427 34.836875 36.484026                                                 
C 28.000563 57.709356 37.215587                                                 
C 29.324383 59.974720 37.159220                                                 
H 53.264234 32.476840 36.839641                                                 
C 53.675142 64.799751 37.590048                                                 
H 44.455994 30.216276 36.433912                                                 
H 25.903330 53.017766 36.951199                                                 
C 57.768192 62.389059 37.339976                                                 
C 49.599797 67.122732 37.464399                                                 
H 63.730667 46.003082 36.229419                                                 
H 28.268035 39.551877 36.962180                                                 
H 25.880298 48.322779 37.197906                                                 
H 63.673244 50.644498 35.902214                                                 
H 49.188865 30.178285 36.547825                                                 
H 61.407035 37.203303 36.615611                                                 
H 32.377509 64.084485 36.684995                                                 
H 36.451316 66.434212 36.634732                                                 
H 63.759389 41.311077 36.385961                                                 
H 63.682693 55.303208 35.832122                                                 
H 25.891044 43.631787 37.146538                                                 
H 25.923860 57.710547 37.050857                                                 
C 61.710380 60.011991 36.630874                                                 
H 40.465006 68.809194 36.825869                                                 
C 45.561613 69.388366 37.072810                                                 
H 28.302671 61.780252 36.966819                                                 
C 52.305674 67.098715 37.683130                                                 
C 56.386355 64.734211 37.703897                                                 
C 60.445611 62.305569 37.062415                                                 
C 48.204863 69.410161 37.252326                                                 
H 63.753800 60.006277 36.285213                                                 
H 44.523863 71.179332 36.876435                                                 
H 53.346062 68.887032 37.960857                                                 
H 57.456154 66.511831 37.984252                                                 
H 61.478907 64.113839 37.068748                                                 
H 49.238454 71.222164 37.226659                                                 
H 28.873046 37.712882 44.878383                                                 
H 40.730162 30.126489 44.721752                                                 
H 32.816822 35.171464 44.954768                                                 
H 36.761536 32.647655 44.802686                                                 
H 45.433840 29.932058 44.622446                                                 
H 26.710416 41.922843 44.962019                                                 
C 41.845449 31.876616 44.544940                                                 
C 29.975311 39.470475 44.679617                                                 
H 62.072453 38.547677 44.422261                                                 
C 33.921602 36.905005 44.614273                                                 
C 37.871605 34.387688 44.523415                                                 
C 44.457174 31.766027 44.468104                                                 
H 49.589917 32.088819 44.527347                                                 
H 64.632468 42.467049 43.627801                                                 
C 28.776306 41.820785 44.746580                                                 
H 65.294673 56.674672 43.982779                                                 
H 26.937959 46.618094 44.966163                                                 
H 27.609946 60.618958 45.151175                                                 
H 53.725773 34.260022 44.639667                                                 
H 57.865803 36.428552 44.846789                                                 
H 30.092039 64.619019 44.756622                                                 
H 27.199240 51.271754 45.083012                                                 
H 65.159186 51.917068 43.412640                                                 
H 42.650931 71.127099 45.024832                                                 
H 63.073993 60.805574 44.664250                                                 
H 27.424088 55.932307 45.274745                                                 
H 64.877955 47.192301 42.967060                                                 
C 32.656229 39.279820 44.508485                                                 
C 40.547136 34.237374 44.510948                                                 
H 47.386837 70.899410 44.924155                                                 
C 36.588104 36.747869 44.481828                                                 
H 38.491573 69.003411 44.697219                                                 
C 61.122348 40.380508 44.155954                                                 
C 62.556365 42.574261 43.738876                                                 
H 34.263833 66.890914 44.410723                                                 
C 48.627517 33.920700 44.261643                                                 
C 63.208795 56.733064 44.013387                                                 
C 29.002788 46.526798 44.686664                                                 
H 59.109401 63.323285 44.819868                                                 
C 29.661936 60.542681 44.852516                                                 
C 45.943000 34.014639 44.360316                                                 
H 51.323845 68.410492 44.215266                                                 
H 55.230602 65.864000 44.533249                                                 
C 30.180449 44.117731 44.600237                                                 
C 31.064036 62.780629 44.647532                                                 
C 52.794014 36.062507 44.133354                                                 
C 61.985219 59.060305 44.352904                                                 
C 56.936072 38.226220 44.307676                                                 
C 43.603095 69.285533 44.795117                                                 
C 29.240389 51.201363 44.638199                                                 
C 63.071217 52.011321 43.491302                                                 
C 29.455355 55.870632 44.793253                                                 
C 62.813967 47.301695 43.213422                                                 
C 46.231093 69.167328 44.752270                                                 
C 50.087742 36.149422 44.201915                                                 
C 58.432524 40.455969 44.174714                                                 
C 39.416303 67.141906 44.546439                                                 
C 54.262058 38.317009 44.187873                                                 
C 30.419901 48.784557 44.641486                                                 
C 61.390535 44.974837 43.528519                                                 
C 35.222509 65.043406 44.200489                                                 
C 42.003491 36.532831 44.212542                                                 
C 61.831246 54.460798 43.740544                                                 
C 34.115282 41.580979 44.250974                                                 
C 30.847489 58.143662 44.670866                                                 
C 45.354392 50.466431 43.551830                                                 
C 30.660335 53.476315 44.652505                                                 
C 38.050918 39.054216 44.127944                                                 
C 61.642576 49.717663 43.401138                                                 
C 46.816798 52.747048 43.556773                                                 
C 58.026236 61.565921 44.505505                                                 
C 42.653355 50.589541 43.598830                                                 
C 46.592939 48.058768 43.539083                                                 
C 44.688879 36.422976 44.141531                                                 
C 33.727759 62.741634 44.325898                                                 
C 50.190306 66.651794 44.257417                                                 
C 42.108236 67.058164 44.617848                                                 
C 32.897494 43.980623 44.323162                                                 
C 54.106047 64.103774 44.384299                                                 
C 59.297740 59.207461 44.395658                                                 
C 45.576642 55.148984 43.616632                                                 
C 49.513719 52.617990 43.545431                                                 
C 41.193954 48.309688 43.635864                                                 
C 45.128237 45.782538 43.571638                                                 
C 37.938351 64.941534 44.339685                                                 
C 41.415939 52.997949 43.656641                                                 
C 49.297330 47.928607 43.524309                                                 
C 47.510668 66.800190 44.509343                                                 
C 40.750745 38.933197 44.010313                                                 
C 36.823583 41.458480 44.025208                                                 
C 42.426911 45.902620 43.627793                                                 
C 42.872379 55.278348 43.669516                                                 
C 50.767298 50.212210 43.524054                                                 
C 48.839008 38.572036 43.938249                                                 
C 55.362696 61.717664 44.464904                                                 
C 33.136316 48.673169 44.274323                                                 
C 53.000535 40.723898 43.894607                                                 
C 57.167027 42.862674 43.898554                                                 
C 51.434122 64.283514 44.081143                                                 
C 58.643246 45.129832 43.716929                                                 
C 46.141603 38.696527 43.899272                                                 
C 46.367021 43.374296 43.614467                                                 
C 38.494407 48.426352 43.755717                                                 
C 34.354249 46.268819 44.128925                                                 
C 33.363604 53.364605 44.254760                                                 
C 50.537748 45.526241 43.562396                                                 
C 38.718507 53.120692 43.762577                                                 
C 50.969959 54.891036 43.626580                                                 
C 40.968669 43.618433 43.731483                                                 
C 50.307341 40.841320 43.778363                                                 
C 47.037962 57.427504 43.676656                                                 
C 33.558309 58.042215 44.313638                                                 
C 59.095398 54.542101 43.755524                                                 
C 42.202358 41.212038 43.783786                                                 
C 38.272242 43.735024 43.849051                                                 
C 49.066285 43.249293 43.618288                                                 
C 44.902016 41.094017 43.730035                                                 
C 58.897803 49.848010 43.542086                                                 
C 37.267647 50.834795 43.831487                                                 
C 34.998709 60.320313 44.211127                                                 
C 37.039229 46.145069 43.879475                                                 
C 34.575129 50.956211 44.083988                                                 
C 54.462100 42.980959 43.788621                                                 
C 53.466812 50.084583 43.535519                                                 
C 49.738888 57.300083 43.697868                                                 
C 43.345040 64.636371 44.365826                                                 
C 41.639709 57.681455 43.779802                                                 
C 57.839129 56.912500 44.020269                                                 
C 34.794254 55.636819 44.111198                                                 
C 53.244000 45.398824 43.629009                                                 
C 57.418465 47.562990 43.626967                                                 
C 39.165696 62.490582 44.179518                                                 
C 37.484992 55.527538 43.873582                                                 
C 57.652800 52.261784 43.584731                                                 
C 54.704219 47.676237 43.594646                                                 
C 46.038339 64.506672 44.290960                                                 
C 53.696665 54.762928 43.685979                                                 
C 54.937106 52.363698 43.576026                                                 
C 38.933824 57.812247 43.868673                                                 
C 45.798841 59.832692 43.829840                                                 
C 37.705928 60.212516 44.031700                                                 
C 53.901072 59.424958 44.084958                                                 
C 43.100151 59.955772 43.886943                                                 
C 49.958598 61.970114 43.994390                                                 
C 41.866891 62.356413 44.147779                                                 
C 51.200299 59.574378 43.896863                                                 
C 55.133701 57.023116 43.914545                                                 
C 47.264010 62.102859 43.998801                                                 
H 43.837897 29.953991 50.443083                                                 
H 27.939655 39.651991 50.828385                                                 
H 48.538872 29.815811 50.424239                                                 
H 60.853547 36.529002 50.605852                                                 
H 63.293531 40.550968 50.831496                                                 
H 25.690046 43.779011 50.982020                                                 
H 28.445771 61.788990 51.211416                                                 
H 25.960642 57.758461 51.031233                                                 
H 35.899600 34.816795 50.382510                                                 
H 39.875351 32.393180 50.367845                                                 
H 31.918424 37.241217 50.540820                                                 
H 63.456631 49.954241 51.339306                                                 
H 36.696215 66.260582 51.560580                                                 
H 63.746143 59.350073 50.840618                                                 
H 44.829491 70.833080 51.278046                                                 
H 63.369097 45.228077 51.142936                                                 
H 32.566864 63.956173 51.658674                                                 
H 52.641047 32.050569 50.361671                                                 
H 56.751477 34.288527 50.429604                                                 
H 63.576281 54.682031 51.234471                                                 
H 61.471283 63.494383 50.901697                                                 
H 40.783932 68.606233 51.063429                                                 
H 49.549249 70.660320 51.770303                                                 
H 25.877833 53.094915 50.946033                                                 
H 25.799224 48.438582 50.949540                                                 
C 44.950618 31.710781 50.324460                                                 
C 47.536138 31.638093 50.307389                                                 
C 29.000123 41.442859 50.710839                                                 
C 59.875434 38.362529 50.479794                                                 
C 27.764250 43.708485 50.788932                                                 
C 61.223987 40.584432 50.606407                                                 
C 28.043123 57.742455 50.897257                                                 
C 29.404961 59.951803 50.996997                                                 
H 57.460978 65.875540 51.372003                                                 
H 53.441922 68.206758 51.955941                                                 
C 40.969733 34.163336 50.235638                                                 
C 36.984679 36.593555 50.247332                                                 
C 32.996698 39.023151 50.409305                                                 
C 61.670874 59.413753 50.683444                                                 
C 45.841026 69.014853 51.181054                                                 
C 60.429868 61.702626 50.731183                                                 
C 51.652347 33.880364 50.202459                                                 
C 48.420767 68.932485 51.440013                                                 
C 55.764567 36.116919 50.250956                                                 
C 61.318854 45.287814 50.744219                                                 
C 61.506345 50.000826 50.578385                                                 
C 33.543647 62.188116 51.106445                                                 
C 37.655404 64.472373 51.009931                                                 
C 27.871646 48.388209 50.721489                                                 
C 27.950823 53.059387 50.719388                                                 
C 61.542492 54.710131 50.730246                                                 
C 41.717907 66.749791 50.863358                                                 
C 43.598209 34.068463 50.189707                                                 
C 49.018975 33.919756 50.153804                                                 
C 31.710107 41.317949 50.454646                                                 
C 57.179081 38.361468 50.242714                                                 
C 29.110281 46.068131 50.616598                                                 
C 59.983719 42.984172 50.477621                                                 
C 29.284686 55.345516 50.660416                                                 
C 39.638449 36.491640 50.136702                                                 
C 32.109130 59.962794 50.837697                                                 
C 35.672844 38.906724 50.213350                                                 
C 53.104247 36.137159 50.105484                                                 
C 56.440009 64.090214 51.048848                                                 
C 52.416293 66.443945 51.558358                                                 
C 29.199507 50.710430 50.566194                                                 
C 45.370138 50.405713 49.306340                                                 
C 60.325243 57.081202 50.514711                                                 
C 60.101083 47.667090 50.615184                                                 
C 44.373203 66.753112 50.843600                                                 
C 36.233885 62.202525 50.947160                                                 
C 60.215893 52.396185 50.558867                                                 
C 40.328331 64.490476 50.699569                                                 
C 57.731782 61.809742 50.668409                                                 
C 49.771889 66.578089 51.302347                                                 
C 44.073073 52.774891 49.360963                                                 
C 48.071194 50.327451 49.305932                                                 
C 43.967177 48.092803 49.360006                                                 
C 53.779274 64.161333 51.140136                                                 
C 45.478461 55.082395 49.450738                                                 
C 49.475898 52.632246 49.363711                                                 
C 45.031965 36.377289 49.980775                                                 
C 41.370766 52.835421 49.467866                                                 
C 49.367616 47.955363 49.346926                                                 
C 47.709135 36.305146 49.966646                                                 
C 33.101421 43.655568 50.236764                                                 
C 41.268457 48.157470 49.452246                                                 
C 45.260287 45.722840 49.390367                                                 
C 31.818242 46.003494 50.313765                                                 
C 55.905577 40.751463 50.011885                                                 
C 57.306423 43.042849 50.099862                                                 
C 31.995097 55.322666 50.385163                                                 
C 33.390610 57.615155 50.436626                                                 
C 48.178683 55.001790 49.457166                                                 
C 39.972008 50.525887 49.511080                                                 
C 47.960661 45.652592 49.382296                                                 
C 51.811036 38.528024 49.876366                                                 
C 41.054573 38.810734 49.909821                                                 
C 37.077560 41.234563 49.982843                                                 
C 57.646806 57.127471 50.195867                                                 
C 31.907772 50.669740 50.255803                                                 
C 45.722142 64.419376 50.591138                                                 
C 57.424204 47.734433 50.090565                                                 
C 56.362967 59.482821 50.304794                                                 
C 37.529614 59.870188 50.359637                                                 
C 48.394476 64.301751 50.739641                                                 
C 57.532769 52.443137 50.064749                                                 
C 41.652853 62.141076 50.314370                                                 
C 40.087662 55.206419 49.656831                                                 
C 44.202805 57.463234 49.687793                                                 
C 52.179459 52.561274 49.490813                                                 
C 52.069675 47.877401 49.461521                                                 
C 39.871496 45.847490 49.582917                                                 
C 49.121237 38.599969 49.796017                                                 
C 43.856382 43.417397 49.516765                                                 
C 43.741043 38.742205 49.823029                                                 
C 35.785480 43.594563 49.977654                                                 
C 53.217947 40.821078 49.793134                                                 
C 33.198781 48.313940 50.115656                                                 
C 33.293933 52.973840 50.139731                                                 
C 39.763310 41.171870 49.813988                                                 
C 41.491796 57.506953 49.768498                                                 
C 56.044318 45.432519 49.899802                                                 
C 53.474663 50.186954 49.545401                                                 
C 41.164475 43.483374 49.611086                                                 
C 36.101999 57.596405 50.192299                                                 
C 52.389565 61.861573 50.563155                                                 
C 37.278030 50.577908 49.704831                                                 
C 56.157508 50.121104 49.855602                                                 
C 49.248380 43.278624 49.492485                                                 
C 40.227474 59.865693 50.104704                                                 
C 49.597324 57.282085 49.706973                                                 
C 56.263980 54.805903 49.942533                                                 
C 44.346151 62.101490 50.232923                                                 
C 45.146738 41.045413 49.623648                                                 
C 37.177659 45.905982 49.769696                                                 
C 37.395639 55.243197 49.857139                                                 
C 53.354047 45.503950 49.582370                                                 
C 47.836412 40.975322 49.613039                                                 
C 35.887482 48.265641 49.836835                                                 
C 51.942433 43.206444 49.588455                                                 
C 35.992375 52.939660 49.868609                                                 
C 45.617639 59.739108 49.957889                                                 
C 53.676819 59.522768 50.167193                                                 
C 49.700253 61.927467 50.432035                                                 
C 53.572969 54.862641 49.687275                                                 
C 48.317798 59.647964 49.991059                                                 
C 52.288789 57.229091 49.803037                                                 
Li 59.744974 41.345658 40.301625                                                
Li 31.604464 60.410133 41.145397                                                
Li 30.899977 41.761288 41.107807                                                
Li 46.713755 67.492232 40.660740                                                
Li 60.022607 59.678100 40.457723                                                
Li 54.894840 62.393655 40.714335                                                
Li 40.767064 65.299163 40.988043                                                
Li 39.632821 35.377550 40.794227                                                
Li 28.611618 53.841353 41.222001                                                
Li 30.182859 48.116172 40.809146                                                
Li 50.839762 36.527993 40.380471                                                
Li 62.551603 53.136867 39.738440                                                
Li 62.699629 52.681538 47.427264                                                
Li 59.934241 47.128057 40.226828                                                
Li 34.880496 37.492511 40.741190                                                
Li 46.492479 33.503306 40.414410                                                
Li 55.777371 36.384699 40.875763                                                
Li 34.879698 64.715292 40.313244                                                
Li 56.254647 64.007715 33.751394                                                
Li 61.396416 47.210016 47.011109                                                
Li 51.803988 66.852215 33.757775                                                
Li 51.603991 65.009135 47.834623                                                
Li 34.985802 64.465472 48.033915                                                
Li 40.493520 66.489360 47.742360                                                
%ENDBLOCK POSITIONS_ABS                                                         

--------------------------------------------------------------------------------
-------------------------------- END INPUT FILE --------------------------------
--------------------------------------------------------------------------------


 
<<<<<<<<<<<<<<<<<<<<<<<<<<<<<<<<< Full system >>>>>>>>>>>>>>>>>>>>>>>>>>>>>>>>>>
<<<<<<<<<<<<<<<<<<<<<<<<<<< PAW Dataset information >>>>>>>>>>>>>>>>>>>>>>>>>>>
File: ~/pp/paw/c_pbe_abinit.paw; rc = 1.25 bohr; shape type =  3; rshape = 1.25 bohr;
  Atomic number:  6;  ionic charge:  4.000000
    Partial Wave 1: l = 0
    Partial Wave 2: l = 0
    Partial Wave 3: l = 1
    Partial Wave 4: l = 1
  Core charge supplied for Nonlinear Core Corrections
File: ~/pp/paw/h_pbe_abinit.paw; rc = 0.90 bohr; shape type =  3; rshape = 0.90 bohr;
  Atomic number:  1;  ionic charge:  1.000000
    Partial Wave 1: l = 0
    Partial Wave 2: l = 0
File: ~/pp/paw/li_pbe_abinit.paw; rc = 1.42 bohr; shape type =  3; rshape = 1.42 bohr;
  Atomic number:  3;  ionic charge:  3.000000
    Partial Wave 1: l = 0
    Partial Wave 2: l = 0
    Partial Wave 3: l = 0
    Partial Wave 4: l = 1
    Partial Wave 5: l = 1
<<<<<<<<<<<<<<<<<<<<<<<<<<<<<<<<<<<<<<< >>>>>>>>>>>>>>>>>>>>>>>>>>>>>>>>>>>>>>>

-------------------------- Atom counting information ---------------------------
Symbol    Natoms    Nngwfs    Nprojs
  C        484      1936      3872
  H        108       108       216
  Li        24       120       216
.......   ......    ......    ......
Totals:    616      2164      4304
--------------------------------------------------------------------------------

=============================== PSINC grid sizes ===============================
                      Simulation cell:  189 x 189 x 189
                              FFT-box:  117 x 117 x 117
                                  PPD:    7 x   7 x   1
Grid space d1=  0.499927596032a0 (KE cutoff=  30.39413Eh = 827.06648eV)
Grid space d2=  0.499927596032a0 (KE cutoff=  30.39413Eh = 827.06648eV)
Grid space d3=  0.499927596032a0 (KE cutoff=  30.39413Eh = 827.06648eV)
================================================================================
  
WARNING in cell_grid_distribute:
Average of less than one 23-slab per proc, so workload cannot be
equally balanced between procs.

********************* Fourier parallelisation information **********************
       Coarse grid (whole simulation cell) dimensions:    189   189   189
          Real-space ('12') slabs/proc (min max mean):      1     2     1
         Recip-space ('23') slabs/proc (min max mean):      0     1     0
********************************************************************************

********************* Fourier parallelisation information **********************
       Double grid (whole simulation cell) dimensions:    378   378   378
          Real-space ('12') slabs/proc (min max mean):      2     3     2
         Recip-space ('23') slabs/proc (min max mean):      1     2     1
********************************************************************************

Atom SCF Calculation for C  : Z (AE atom) =   6 : Z (PS atom) =   4
Config String: 2s2 2p2
Orbitals (num,occ):  2     2.00 2.00
Orbitals   (num,l):  2        0    1
Real-space Grid (nr,dr,rmax): 1377    0.0065406977    9.0000000000
Spherical Bessel Basis (nsws,lmax,cutoff):   37    2  183.0099912382
Confining potential (l,width,scale):  0    3.0000000000  100.0000000000
Confining potential (l,width,scale):  1    3.0000000000  100.0000000000
  1         -5.4795186097   -1.3252230651    4.5135247139   -1.6370402178
  2         -5.4480873667   -1.4027986130    4.4305957006   -1.6109824140
  3         -5.4553175168   -1.4212842775    4.4102621601   -1.6059044058
  4         -5.4627851864   -1.4247099971    4.4065125496   -1.6052912254
  5         -5.4662317525   -1.4266823431    4.4043718731   -1.6049357348
  6         -5.4679531179   -1.4277361345    4.4032352159   -1.6047498153
  7         -5.4688370531   -1.4282876632    4.4026436340   -1.6046546171
  8         -5.4692962224   -1.4285743132    4.4023378281   -1.6046060967
  9         -5.4695360875   -1.4287229388    4.4021801230   -1.6045813828
 10         -5.4696617783   -1.4287999625    4.4020988354   -1.6045687883
 11         -5.4697277645   -1.4288398966    4.4020569195   -1.6045623641
 12         -5.4697624500   -1.4288606199    4.4020352864   -1.6045590836
 13         -5.4697806994   -1.4288713865    4.4020241086   -1.6045574064
 14         -5.4697903086   -1.4288769875    4.4020183254   -1.6045565478
 15         -5.4697953717   -1.4288799052    4.4020153292   -1.6045561077
 16         -5.4697980412   -1.4288814272    4.4020137746   -1.6045558818
 17         -5.4697994496   -1.4288822223    4.4020129668   -1.6045557657
 18         -5.4698001930   -1.4288826382    4.4020125465   -1.6045557059
 19         -5.4698005858   -1.4288828561    4.4020123274   -1.6045556751
 20         -5.4698007933   -1.4288829704    4.4020122131   -1.6045556592
 21         -5.4698009031   -1.4288830304    4.4020121533   -1.6045556509
 22         -5.4698009612   -1.4288830620    4.4020121220   -1.6045556467
Atom SCF converged after  22 iterations to a total energy of     -5.46980096

Atom SCF Calculation for H  : Z (AE atom) =   1 : Z (PS atom) =   1
Config String: 1s1
Orbitals (num,occ):  1     1.00
Orbitals   (num,l):  1        0
Real-space Grid (nr,dr,rmax): 1377    0.0065406977    9.0000000000
Spherical Bessel Basis (nsws,lmax,cutoff):   37    1  183.0099912382
Confining potential (l,width,scale):  0    3.0000000000  100.0000000000
  1         -0.3687944832   -0.2607687933    0.2820952946   -0.2613406499
  2         -0.4328656062   -0.2590521405    0.2895573663   -0.2701762133
  3         -0.4633856573   -0.2560091938    0.2934204754   -0.2757429988
  4         -0.4750266404   -0.2549676794    0.2946557510   -0.2779015032
  5         -0.4793045155   -0.2546870695    0.2949704774   -0.2786577123
  6         -0.4808919118   -0.2546234645    0.2950332622   -0.2789201171
  7         -0.4814942533   -0.2546130669    0.2950388368   -0.2790132353
  8         -0.4817280090   -0.2546133926    0.2950352123   -0.2790473458
  9         -0.4818204053   -0.2546148712    0.2950319888   -0.2790602287
 10         -0.4818574273   -0.2546158825    0.2950301416   -0.2790652181
 11         -0.4818724050   -0.2546164247    0.2950292178   -0.2790671871
 12         -0.4818785049   -0.2546166894    0.2950287833   -0.2790679748
 13         -0.4818810009   -0.2546168128    0.2950285855   -0.2790682928
 14         -0.4818820255   -0.2546168689    0.2950284970   -0.2790684221
 15         -0.4818824471   -0.2546168940    0.2950284580   -0.2790684748
 16         -0.4818826210   -0.2546169051    0.2950284408   -0.2790684964
 17         -0.4818826928   -0.2546169100    0.2950284333   -0.2790685053
Atom SCF converged after  17 iterations to a total energy of     -0.48188269

Atom SCF Calculation for Li : Z (AE atom) =   3 : Z (PS atom) =   3
Config String: 1s2 2s1 2p0
Orbitals (num,occ):  3     2.00 1.00 0.00
Orbitals   (num,l):  3        0    0    1
Real-space Grid (nr,dr,rmax): 1377    0.0065406977    9.0000000000
Spherical Bessel Basis (nsws,lmax,cutoff):   37    2  183.0099912382
Confining potential (l,width,scale):  0    3.0000000000  100.0000000000
Confining potential (l,width,scale):  1    3.0000000000  100.0000000000
  1         -6.1314629607   -4.7499359229    2.5388576516   -1.0480231927
  2         -7.0450508208   -4.1702030791    2.9795337774   -1.2623862962
  3         -7.3518474013   -3.9564527259    3.2037296734   -1.3880788964
  4         -7.4613386962   -3.8947565558    3.2914990517   -1.4402825036
  5         -7.5001516047   -3.8789668192    3.3221434609   -1.4602864917
  6         -7.5136113510   -3.8755528126    3.3322769691   -1.4678164580
  7         -7.5181182589   -3.8751724459    3.3354399675   -1.4706394447
  8         -7.5195538340   -3.8753832694    3.3363346353   -1.4716958846
  9         -7.5199777516   -3.8756112412    3.3365363545   -1.4720903919
 10         -7.5200869011   -3.8757624244    3.3365501247   -1.4722372325
 11         -7.5201065703   -3.8758489541    3.3365264569   -1.4722916218
 12         -7.5201049812   -3.8758952022    3.3365040630   -1.4723116262
 13         -7.5201006323   -3.8759190019    3.3364892955   -1.4723189110
 14         -7.5200980758   -3.8759285770    3.3364824548   -1.4723210036
 15         -7.5200963811   -3.8759342877    3.3364781194   -1.4723220111
 16         -7.5200953120   -3.8759376792    3.3364754203   -1.4723224913
 17         -7.5200946593   -3.8759396866    3.3364737619   -1.4723227171
 18         -7.5200942701   -3.8759408718    3.3364727530   -1.4723228213
 19         -7.5200940419   -3.8759415700    3.3364721439   -1.4723228682
 20         -7.5200939099   -3.8759419808    3.3364717784   -1.4723228886
 21         -7.5200938343   -3.8759422222    3.3364715600   -1.4723228969
Atom SCF converged after  21 iterations to a total energy of     -7.52009383

Determining parallel strategy ...
... using space-filling curve
... NGWF load balancing: max     16;  min     12;  average     14
... Projector load balancing: max     32;  min     24;  average     27
... done
Calculating Ewald energy ...
              Ewald: real-space energy =   36808.609879
        Ewald: reciprocal-space energy =   35509.056265
         Ewald: (sum_charge)**2 Energy =    2784.660016
         Ewald: (sum_charge**2) Energy =     249.073253
                          Ewald Energy =   69283.932874
Basis initialisation ...... NGWF spheres initialised
... Projector spheres initialised
... NGWF tight boxes initialised
... Projector tight boxes initialised
... Tight-boxes gathered
... NGWF basis size (local,global):     275958  43684924
... PAW projector initialisation
... done

============================= Charge Augmentation ==============================
                           Aug box size:   13 x  13 x  13
================================================================================

========================== Sparse matrix information ===========================
                        Overlap matrix filling:  38.47%
                        Density kernel filling: 100.00%
              NGWF-Proj overlap matrix filling:  10.83%
                    Aug Overlap matrix filling:  42.90%
                    Hamiltonian matrix filling:  42.90%
                  NGWF diagonal matrix filling:   0.18%
                             KS matrix filling: 100.00% 
                           KSKS matrix filling: 100.00% 
================================================================================

Sparse matrix initialisation ... done
NGWF initialisation ...... done
============ Calculation of NGWF S^-1 using Hotelling algorithm ================ 
         Iteration  |  Frobenius norm and Maximum abs value    (of I-S*S_n^-1)   
               1       0.46237181E+02     0.99679953E+00
               2       0.45968722E+02     0.99361792E+00
               3       0.45467718E+02     0.98730944E+00
               4       0.44587943E+02     0.97489983E+00
               5       0.43189671E+02     0.95083204E+00
               6       0.41241695E+02     0.90525281E+00
               7       0.38818150E+02     0.82298352E+00
               8       0.35964268E+02     0.78838432E+00
               9       0.32842089E+02     0.76966622E+00
              10       0.29781407E+02     0.74755317E+00
              11       0.26684739E+02     0.73156106E+00
              12       0.22915150E+02     0.70361965E+00
              13       0.17963771E+02     0.66657089E+00
              14       0.11960379E+02     0.61346081E+00
              15       0.62869539E+01     0.52761098E+00
              16       0.28486771E+01     0.42526778E+00
              17       0.15102545E+01     0.34208757E+00
              18       0.75506584E+00     0.22552388E+00
              19       0.27566677E+00     0.10076503E+00
              20       0.55639277E-01     0.21520725E-01
              21       0.29432047E-02     0.11068613E-02
              22       0.86514603E-05     0.32213569E-05
              23       0.74851533E-10     0.27860381E-10
              24       0.46687744E-13     0.35527137E-14
================================================================================
Calculating core density ...
================================= Core Density =================================
               Core den box size:   21 x  21 x  21
================================================================================
 ... done
Up spin density kernel initialisation ...... done
Down spin density kernel initialisation ...... done

Writing density kernel to file "24/592nano.dkn" ... done

>>> Optimising kernel for current NGWFs:

--------------------------- Ensemble-DFT optimisation --------------------------
Running ScaLAPACK on  160 processor(s).

--------------------------------------------------------------------------------
  Iter                              Commutator    Free_energy(A=E-TS)     DeltaA
#    0                          0.001117963091   -3003.86081798090254  -3.00E+03

Step                       =       0.381966011250
Energy (E)                 =   -3003.829750235386
Entropy (-TS)              =      -0.031067745516
Free energy (A=E-TS)       =   -3003.860817980903
Est. 0K Energy 0.5*(E+A)   =   -3003.845284108144
Residual Non-orthogonality =       0.000000000000
Residual N_electrons       =       0.000000000000

Spin          Integrated_Ne            Fermi_level     Delta_Fermi_level
   1      1058.000000000000        -0.237333597331             -2.37E-01
   2      1058.000000000000        -0.237333597331             -2.37E-01

                           Spin 1           |                 Spin 2           |
     Orb |    H-eigenvalues     Occupancies |    H-eigenvalues     Occupancies |
       1 |    -1.9095658495    1.0000000000 |    -1.9095658495    1.0000000000 | 
                          ------                             ------
    1053 |    -0.2584444510    0.9987284936 |    -0.2584444510    0.9987284936 | 
    1054 |    -0.2514183477    0.9884289741 |    -0.2514183477    0.9884289741 | 
    1055 |    -0.2478765131    0.9654167239 |    -0.2478765131    0.9654167239 | 
    1056 |    -0.2422514826    0.8253387315 |    -0.2422514826    0.8253387315 | 
    1057 |    -0.2392253783    0.6450560242 |    -0.2392253783    0.6450560242 | 
                  Finite temp. Fermi level   |      Finite temp. Fermi level  
    1058 |    -0.2365610996    0.4393167406 |    -0.2365610996    0.4393167406 | 
                 - Gap at zero temperature - |     - Gap at zero temperature -
    1059 |    -0.2345930313    0.2962118788 |    -0.2345930313    0.2962118788 | 
    1060 |    -0.2344900386    0.2894771267 |    -0.2344900386    0.2894771267 | 
    1061 |    -0.2335114111    0.2302409799 |    -0.2335114111    0.2302409799 | 
    1062 |    -0.2314581384    0.1352490959 |    -0.2314581384    0.1352490959 | 
                          ------                             ------
    2164 |     0.5618752262    0.0000000000 |     0.5618752262    0.0000000000 | 

                            |  Abs_value |  Threshold | Converged
     Delta_Free_energy/atom |   4.88E+00 |   1.00E-06 |        No
     Delta_Energy/atom      |   4.88E+00 |   1.00E-04 |        No
     Delta_Entropy/atom     |   5.04E-05 |   1.00E-04 |       Yes
     Commutator             |   1.12E-03 |   1.00E-05 |        No
     Delta_Fermi_level      |   2.37E-01 |   1.00E-03 |        No

  Line search of the free energy minimum:
  Step_type        Step             Free_energy   Predicted_free_energy
.   Initial    0.000000    -3003.86081798090254

Performing  Pulay mixing of Hamiltonian with coefficients:
                        Spin 1               Spin 2
                1.000000000000       1.000000000000
Lambda-->      21.804337536685      21.804337538622     ... done

.    Trial1    0.381966    -3002.43115525993608

Performing  Pulay mixing of Hamiltonian with coefficients:
                        Spin 1               Spin 2
                1.000000000000       1.000000000000
Lambda-->      21.804337536685      21.804337538622     ... done

.    Trial2    0.145898    -3004.54077365719377

Performing  Pulay mixing of Hamiltonian with coefficients:
                        Spin 1               Spin 2
                1.000000000000       1.000000000000
Lambda-->      21.804337536685      21.804337538622     ... done

. Quadratic    0.138410    -3004.54253871626270    -3004.54276953081171

--------------------------------------------------------------------------------
  Iter                              Commutator    Free_energy(A=E-TS)     DeltaA
#    1                          0.000818928373   -3004.54253871626270  -6.82E-01

Step                       =       0.138410172828
Energy (E)                 =   -3004.516248200883
Entropy (-TS)              =      -0.026290515671
Free energy (A=E-TS)       =   -3004.542538716263
Est. 0K Energy 0.5*(E+A)   =   -3004.529393458572
Residual Non-orthogonality =       0.000000000000
Residual N_electrons       =       0.000000000291

Spin          Integrated_Ne            Fermi_level     Delta_Fermi_level
   1      1058.000000000637        -0.228671820052              8.66E-03
   2      1058.000000000637        -0.228671820057              8.66E-03

                           Spin 1           |                 Spin 2           |
     Orb |    H-eigenvalues     Occupancies |    H-eigenvalues     Occupancies |
       1 |    -1.9286830115    1.0000000000 |    -1.9286830115    1.0000000000 | 
                          ------                             ------
    1054 |    -0.2449063387    0.9940974791 |    -0.2449063387    0.9940974791 | 
    1055 |    -0.2378423863    0.9476402075 |    -0.2378423864    0.9476402075 | 
    1056 |    -0.2340589120    0.8456795438 |    -0.2340589120    0.8456795438 | 
    1057 |    -0.2331958446    0.8066790371 |    -0.2331958446    0.8066790371 | 
[...]
 C   400 -- Li  602       -0.05      0.00      5.64218
 C   230 -- Li  611       -0.04     -0.00      5.64341
 C   502 -- Li  612       -0.05      0.00      5.64537
 C   441 -- Li  616       -0.06     -0.00      5.64698
 C   202 -- Li  604       -0.04     -0.00      5.64933
 H   323 -- Li  606       -0.02     -0.00      5.65273
 C   401 -- Li  601       -0.03      0.00      5.65741
 H   314 -- Li  594       -0.01     -0.00      5.66092
 H   296 -- Li  596       -0.01     -0.00      5.66387
 C    86 -- H   278       -0.02      0.00      5.66411
 C    51 -- Li  613       -0.04      0.00      5.66824
=============================================================


============== Orbital energy and occupancy information for spin 1 =============

      Total number of orbitals:    2164
        Occupancy sum (kernel):    1058.000000004
   Occupancy sum (eigenvalues):    1058.000000004
                 HOMO-LUMO gap:       0.001762643 Eh
                 Mid-gap level:      -0.090096102 Eh

                        Orbital | Energy (Eh) | Occupancy
                            1    -1.862239733   1.0000000
                        .......   ...........   .........
                         1050    -0.120123943   0.9997902
                         1051    -0.116755648   0.9993976
                         1052    -0.114249894   0.9986641
                         1053    -0.112784655   0.9979099
                         1054    -0.107064097   0.9874323
                         1055    -0.099768318   0.8855751
                         1056    -0.098495411   0.8355918
                         1057    -0.097879989   0.8061025
                         1058    -0.093612577   0.5181302
                         1059    -0.090977424   0.3165866
                        ....... -- gap at 0K -- .........
                         1060    -0.089214781   0.2096179
                         1061    -0.088483952   0.1716128
                         1062    -0.085976645   0.0848869
                         1063    -0.085597200   0.0768483
                         1064    -0.083918322   0.0458754
                         1065    -0.082435542   0.0295927
                         1066    -0.080586857   0.0163717
                         1067    -0.077768679   0.0061333
                         1068    -0.077273313   0.0053174
                         1069    -0.074805644   0.0023668
                        .......   ...........   .........
                         2164     0.769848680   0.0000000

================================================================================

============== Orbital energy and occupancy information for spin 2 =============

      Total number of orbitals:    2164
        Occupancy sum (kernel):    1057.999999997
   Occupancy sum (eigenvalues):    1057.999999997
                 HOMO-LUMO gap:       0.002635153 Eh
                 Mid-gap level:      -0.092295000 Eh

                        Orbital | Energy (Eh) | Occupancy
                            1    -1.862239733   1.0000000
                        .......   ...........   .........
                         1049    -0.122027000   0.9998841
                         1050    -0.120123943   0.9997902
                         1051    -0.116755648   0.9993976
                         1052    -0.114249894   0.9986641
                         1053    -0.112784655   0.9979099
                         1054    -0.107064097   0.9874323
                         1055    -0.099768318   0.8855751
                         1056    -0.098495411   0.8355918
                         1057    -0.097879989   0.8061025
                         1058    -0.093612577   0.5181302
                        ....... -- gap at 0K -- .........
                         1059    -0.090977424   0.3165866
                         1060    -0.089214781   0.2096180
                         1061    -0.088483952   0.1716127
                         1062    -0.085976644   0.0848869
                         1063    -0.085597200   0.0768483
                         1064    -0.083918321   0.0458754
                         1065    -0.082435542   0.0295927
                         1066    -0.080586857   0.0163717
                         1067    -0.077768679   0.0061333
                         1068    -0.077273313   0.0053174
                        .......   ...........   .........
                         2164     0.769848680   0.0000000

================================================================================

===================== Writing canonical molecular orbitals =====================
    Spin 1
| Orbital  Energy (eV)  Norm     |
| HOMO     -2.47562168  1.000000 | Writing "24/592nano_HOMO_UP.cube" ... done
Writing "24/592nano_HOMO_UP.dx" ... done
| LUMO     -2.42765771  1.000000 | Writing "24/592nano_LUMO_UP.cube" ... done
Writing "24/592nano_LUMO_UP.dx" ... done
================================================================================

===================== Writing canonical molecular orbitals =====================
    Spin 2
| Orbital  Energy (eV)  Norm     |
| HOMO     -2.54732783  1.000000 | Writing "24/592nano_HOMO_DN.cube" ... done
Writing "24/592nano_HOMO_DN.dx" ... done
| LUMO     -2.47562167  1.000000 | Writing "24/592nano_LUMO_DN.cube" ... done
Writing "24/592nano_LUMO_DN.dx" ... done
================================================================================

================== Local Density of States (LDOS) calculation ==================
Writing "24/592nano_UP_LDOS.txt" ...  done
================================================================================

================== Local Density of States (LDOS) calculation ==================
Writing "24/592nano_DN_LDOS.txt" ...  done
================================================================================
 
=============== Density of States (DOS) calculation for UP spin ================
Writing "24/592nano_UP_DOS.txt" ...  done
================================================================================
 
============== Density of States (DOS) calculation for DOWN spin ===============
Writing "24/592nano_DN_DOS.txt" ...  done
================================================================================
 
Writing bands to file "24/592nano.val_bands" ... done
 
================ Projected Density of States (pDOS) calculation ================
 
Constructing AM resolved functions  ...... done
Writing NGWF plot files in formats: CUBE DX ...  done
 
Performing overlap integrals ...  done
 
Computing pDOS weights ...  done
 
All bands spilling parameter =   3.01 %
Occupancy-weighted spilling parameter =   0.86 %
 
 => Outputting data for OptaDOS <=
 
Writing pDOS weights to file "24/592nano.val_pdos_bin" ... done
 
Writing band gradients to file "24/592nano.val_dome_bin" ... done
 
Writing Castep output cell file to "24/592nano-out.cell" ... done
 
 => Computing Gaussian smeared pDOS for UP spin<= 
Writing "24/592nano_UP_PDOS.txt" ...  done
 
 => Computing Gaussian smeared pDOS for DOWN spin<= 
Writing "24/592nano_DN_PDOS.txt" ...  done
 
 => Computing Occupancy-weighted Gaussian smeared pDOS for UP spin<= 
Writing "24/592nano_occ_UP_PDOS.txt" ...  done
  => Band centres for UP spin channel: 
 S band centre of group 1:  -16.793728 eV
 P band centre of group 1:   -8.009400 eV
  Band centres for UP spin channel done. <= 
  => Integrated number of electrons in each AM band for UP spin channel: 
 S num electrons of group 1:  290.929205
 P num electrons of group 1:  758.016696
  Integrated number of electrons for UP spin channel done. <= 
 
 => Computing Occupancy-weighted Gaussian smeared pDOS for DOWN spin<= 
Writing "24/592nano_occ_DN_PDOS.txt" ...  done
  => Band centres for DOWN spin channel: 
 S band centre of group 1:  -16.793728 eV
 P band centre of group 1:   -8.009400 eV
  Band centres for DOWN spin channel done. <=
  => Integrated number of electrons in each AM band for DOWN spin channel: 
 S num electrons of group 1:  290.929205
 P num electrons of group 1:  758.016696
  Integrated number of electrons for DOWN spin channel done. <=
================================================================================

------------------------------ TIMING INFORMATION ------------------------------
AVERAGE TIME:    8909.191s on    160 proc(s)                                    
TOTAL TIME:      8909.191s on    160 proc(s)                                    
================= AVERAGE TIMINGS FROM ALL PROCS (CUMULATIVE) ==================
|| TAG                                    #calls    cpu time   %total  Gflops ||
|| work_imbalance                       :     1        0.00s   0.000%  ------ ||
|| paw_tcore_density                    :     1        0.01s   0.000%  ------ ||
|| paw_dij_hartree                      :   293        0.01s   0.000%  ------ ||
|| paw_sphere_density_on_grid           :     1        0.01s   0.000%  ------ ||
|| sparse_set_to_garbage                :   372        0.02s   0.000%  ------ ||
|| basis_extract_function_from_box      :   541        0.03s   0.000%  ------ ||
|| ngwfs_initialise_from_radial         :     2        0.04s   0.000%  ------ ||
|| ewald_calculate_energy               :     1        0.11s   0.001%  ------ ||
|| density_init_guess_real              :     1        0.20s   0.002%  ------ ||
|| paw_dataset_init                     :     3        0.35s   0.004%  ------ ||
|| paw_tcore_hartree_on_grid            :     1        0.38s   0.004%  ------ ||
|| pseudo_make_structure_factor         :     1        0.47s   0.005%  ------ ||
|| dense_normal_eigensolve              :     1        0.97s   0.011%  ------ ||
|| sparse_init                          :     1        1.01s   0.011%  ------ ||
|| restart_kernel_write                 :    21        2.11s   0.024%  ------ ||
|| paw_species_calc_proj_prec_mat       :     1        2.37s   0.027%  ------ ||
|| augmentation_screen_dij              :   201        2.49s   0.028%  ------ ||
|| sw_init                              :     1        7.00s   0.079%  ------ ||
|| sparse_embed_hotelling_invert_embed  :    42        7.48s   0.084%  ------ ||
|| hartree_on_grid                      :   194       10.73s   0.120%  ------ ||
|| basis_copy_function_to_box           :  8507       11.17s   0.125%  ------ ||
|| ngwf_gradient_coeffs                 :    20       11.45s   0.128%  ------ ||
|| paw_dij_xc                           :   293       12.51s   0.140%  ------ ||
|| fourier_apply_box_pair               :  1378       15.37s   0.173%  2.368k ||
|| augmentation_density_on_grid         :   194       29.33s   0.329%  ------ ||
|| projectors_init_fftbox_recip         :    84       35.01s   0.393%  ------ ||
|| sparse_trace                         :  7014       36.77s   0.413%  ------ ||
|| aug_nonlocal_mat                     :   273       38.87s   0.436%  ------ ||
|| integrals_kinetic                    :    42       52.93s   0.594%  ------ ||
|| projectors_func_ovlp_box             :    43       62.78s   0.705%  ------ ||
|| function_ops_brappd_ketppd           :    86       64.60s   0.725%  ------ ||
|| basis_dot_function_with_box          : 2.489M      70.02s   0.786%  ------ ||
|| eigenstates_pdos                     :     1       86.80s   0.974%  ------ ||
|| dense_eigensolve                     :   292       93.71s   1.052%  ------ ||
|| hamiltonian_energy_components        :     4       98.33s   1.104%  ------ ||
|| fourier_apply_cell_forward           :  7142      137.25s   1.541% 181.112 ||
|| fourier_apply_cell_backward          :  7915      157.02s   1.762% 175.448 ||
|| eigenstates_calculate                :     1      177.18s   1.989%  ------ ||
|| cell_grid_deposit_box_real           : 12500      196.87s   2.210%  ------ ||
|| integrals_locpot_mat_els_batch       :   176      202.21s   2.270%  ------ ||
|| sparse_product                       :  9287      205.03s   2.301%  ------ ||
|| basis_add_function_to_box            : 6.171M     210.24s   2.360%  ------ ||
|| restart_ngwfs_tightbox_output        :    19      266.88s   2.996%  ------ ||
|| edft_diag_ngwf_ham                   :   290      345.11s   3.874%  ------ ||
|| density_fftbox_deposit_to_cell       :  6208      368.91s   4.141%  ------ ||
|| density_batch_row_sums               :   194      371.75s   4.173%  ------ ||
|| xc_energy_potential                  :   193      378.24s   4.246%  ------ ||
|| cell_grid_extract_box_real           :  5084      428.76s   4.813%  ------ ||
|| nlxc_vdw_energy                      :   386      514.35s   5.773%  ------ ||
|| density_fftbox_interpolate_multiply  :  6208      551.48s   6.190%  ------ ||
|| edft_apply_smearing_operator         :   145      558.51s   6.269%  ------ ||
|| potential_apply_to_ngwf_batch        :   176      601.08s   6.747%  ------ ||
|| fourier_apply_box                    : 29329      602.73s   6.765%  4.108k ||
|| integrals_locpot_dbl_grid            :   176      809.32s   9.084%  ------ ||
|| projectors_gradient_batch            :    20      867.11s   9.733%  ------ ||
|| density_batch_interp_deposit         :   194     1091.42s  12.250%  ------ ||
|| projectors_grad_precond_batch        :    20     1201.72s  13.489%  ------ ||
|| properties_calculate                 :     1     1235.12s  13.863%  ------ ||
|| density_on_dbl_grid                  :   194     1495.59s  16.787%  ------ ||
|| hamiltonian_lhxc_calculate           :   188     1917.91s  21.527%  ------ ||
|| ngwf_gradient_build_batch            :    20     2297.48s  25.788%  ------ ||
|| ngwf_gradient_batch                  :    20     2495.18s  28.007%  ------ ||
|| ngwf_gradient_lnv                    :    20     2521.08s  28.298%  ------ ||
|| edft_calculate                       :    20     3220.11s  36.144%  ------ ||
|| ngwf_cg_optimise                     :     1     7652.69s  85.897%  ------ ||
|| total_time                           :     1     8909.19s 100.000%  ------ ||
================================================================================
==================== AVERAGE TIMINGS FROM ALL PROCS (SELF) =====================
++ TAG                                    #calls    cpu time   %total  Gflops ++
++ work_imbalance                       :     1        0.00s   0.000%  ------ ++
++ paw_tcore_density                    :     1        0.01s   0.000%  ------ ++
++ paw_sphere_density_on_grid           :     1        0.01s   0.000%  ------ ++
++ paw_tcore_hartree_on_grid            :     1        0.01s   0.000%  ------ ++
++ paw_dij_hartree                      :   293        0.01s   0.000%  ------ ++
++ sparse_set_to_garbage                :   372        0.02s   0.000%  ------ ++
++ basis_extract_function_from_box      :   541        0.03s   0.000%  ------ ++
++ ngwfs_initialise_from_radial         :     2        0.04s   0.000%  ------ ++
++ sparse_embed_hotelling_invert_embed  :    42        0.10s   0.001%  ------ ++
++ ewald_calculate_energy               :     1        0.11s   0.001%  ------ ++
++ density_init_guess_real              :     1        0.17s   0.002%  ------ ++
++ ngwf_gradient_coeffs                 :    20        0.28s   0.003%  ------ ++
++ paw_dataset_init                     :     3        0.35s   0.004%  ------ ++
++ pseudo_make_structure_factor         :     1        0.47s   0.005%  ------ ++
++ dense_normal_eigensolve              :     1        0.97s   0.011%  ------ ++
++ sparse_init                          :     1        1.01s   0.011%  ------ ++
++ hamiltonian_energy_components        :     4        1.78s   0.020%  ------ ++
++ hartree_on_grid                      :   194        1.96s   0.022%  ------ ++
++ paw_species_calc_proj_prec_mat       :     1        1.98s   0.022%  ------ ++
++ augmentation_screen_dij              :   201        2.11s   0.024%  ------ ++
++ restart_kernel_write                 :    21        2.11s   0.024%  ------ ++
++ main_program_(onetep.F90)            :     1        2.22s   0.025%  ------ ++
++ aug_nonlocal_mat                     :   273        2.81s   0.032%  ------ ++
++ integrals_locpot_dbl_grid            :   176        6.02s   0.068%  ------ ++
++ sw_init                              :     1        7.00s   0.079%  ------ ++
++ augmentation_density_on_grid         :   194        8.81s   0.099%  ------ ++
++ basis_copy_function_to_box           :  8507       11.17s   0.125%  ------ ++
++ paw_dij_xc                           :   293       12.51s   0.140%  ------ ++
++ ngwf_gradient_lnv                    :    20       14.46s   0.162%  ------ ++
++ fourier_apply_box_pair               :  1378       15.37s   0.173%  2.368k ++
++ projectors_func_ovlp_box             :    43       27.68s   0.311%  ------ ++
++ nlxc_vdw_energy                      :   386       29.60s   0.332%  ------ ++
++ density_on_dbl_grid                  :   194       32.42s   0.364%  ------ ++
++ projectors_init_fftbox_recip         :    84       35.01s   0.393%  ------ ++
++ sparse_trace                         :  7014       36.77s   0.413%  ------ ++
++ integrals_kinetic                    :    42       39.40s   0.442%  ------ ++
++ edft_calculate                       :    20       49.80s   0.559%  ------ ++
++ hamiltonian_lhxc_calculate           :   188       59.01s   0.662%  ------ ++
++ xc_energy_potential                  :   193       63.51s   0.713%  ------ ++
++ function_ops_brappd_ketppd           :    86       64.60s   0.725%  ------ ++
++ eigenstates_calculate                :     1       65.80s   0.739%  ------ ++
++ basis_dot_function_with_box          : 2.489M      70.02s   0.786%  ------ ++ (!) overhead: ~   4.8%
++ eigenstates_pdos                     :     1       75.34s   0.846%  ------ ++
++ dense_eigensolve                     :   292       93.71s   1.052%  ------ ++
++ ngwf_gradient_build_batch            :    20      100.66s   1.130%  ------ ++
++ density_batch_interp_deposit         :   194      105.17s   1.180%  ------ ++
++ ngwf_gradient_batch                  :    20      125.69s   1.411%  ------ ++
++ fourier_apply_cell_forward           :  7142      137.25s   1.541% 181.112 ++
++ integrals_locpot_mat_els_batch       :   176      148.34s   1.665%  ------ ++
++ fourier_apply_cell_backward          :  7915      157.02s   1.762% 175.448 ++
++ density_fftbox_deposit_to_cell       :  6208      173.59s   1.948%  ------ ++
++ cell_grid_deposit_box_real           : 12500      196.87s   2.210%  ------ ++
++ edft_apply_smearing_operator         :   145      201.70s   2.264%  ------ ++
++ sparse_product                       :  9287      205.03s   2.301%  ------ ++
++ basis_add_function_to_box            : 6.171M     210.24s   2.360%  ------ ++ (!) overhead: ~   3.9%
++ density_fftbox_interpolate_multiply  :  6208      219.41s   2.463%  ------ ++
++ density_batch_row_sums               :   194      236.48s   2.654%  ------ ++
++ edft_diag_ngwf_ham                   :   290      252.13s   2.830%  ------ ++
++ restart_ngwfs_tightbox_output        :    19      266.85s   2.995%  ------ ++
++ potential_apply_to_ngwf_batch        :   176      333.27s   3.741%  ------ ++
++ cell_grid_extract_box_real           :  5084      428.76s   4.813%  ------ ++
++ fourier_apply_box                    : 29329      602.73s   6.765%  4.108k ++
++ properties_calculate                 :     1      731.19s   8.207%  ------ ++
++ projectors_gradient_batch            :    20      851.10s   9.553%  ------ ++
++ ngwf_cg_optimise                     :     1     1126.41s  12.643%  ------ ++
++ projectors_grad_precond_batch        :    20     1183.34s  13.282%  ------ ++
================================================================================
(!) WARNING: You're wasting precious cycles calling timer. 
             Each pair of timer_clock calls itself cost   1.34 microseconds!
Overhead of generating timer report: 
- 0 ms averaging over threads,
- 27 ms ensuring consistency across MPI ranks,
- 0 ms printing in order.

Job completed: 06-10-2021 11:54 (+0100)

