 +---------------------------------------------------------------+
 |                                                               |
 |        ####### #     # ####### ####### ####### ######         |
 |        #     # ##    # #          #    #       #     #        |
 |        #     # # #   # #          #    #       #     #        |
 |        #     # #  #  # #####      #    #####   ######         |
 |        #     # #   # # #          #    #       #              |
 |        #     # #    ## #          #    #       #              |
 |        ####### #     # #######    #    ####### #              |
 |                                                               |
 |        Linear-Scaling Ab Initio Total Energy Program          |
 |                                                               |
 |          Release for academic collaborators of ODG            |
 |                                             Version 6.1.3.6   |
 |                                                               |
 +---------------------------------------------------------------+
 |                                                               |
 |  Authors:                                                     |
 |  Jacek Dziedzic, Peter D. Haynes, Nicholas D. M. Hine,        |
 |  Arash A. Mostofi, Mike C. Payne and Chris-Kriton Skylaris    |
 |                                                               |
 |  Contributors:                                                |
 |  J. Aarons, L. Andrinopoulos, P. W. Avraam, R. A. Bell,       |
 |  A. Bhandari, G. A. Bramley, R. J. Charlton, S. J. Clark,     |
 |  R. J. Clements, G. C. Constantinescu, F. Corsetti,           |
 |  N. Corsini, O. Dieguez, S. M. M. Dubois, K. K. B. Duff,      |
 |  J. M. Escartin, A. Greco, H. Helal, Q. O. Hill, L. P. Lee,   |
 |  J.-H. Li, E. B. Linscott, G. Moynihan, D. D. O`Regan,        |
 |  O. K. Okan, M. J. S. Phipps, C. J. Pickard,                  |
 |  J. C. A. Prentice, M. I. J. Probert, L. E. Ratcliff,         |
 |  M. Robinson, A. Ruiz Serrano, J. S. Spencer, E. W. Tait,     |
 |  G. Teobaldi, D. Turban, V. Vitale, K. A. Wilkinson,          |
 |  C. Weber, J. C. Womack, N. Yeung and T. J. Zuehlsdorff       |
 |                                                               |
 |                                   Copyright (c) 2004-2021     |
 |                                                               |
 |  Please cite:                                                 |
 |  "The ONETEP linear-scaling density functional theory program"|
 |   J. Chem. Phys. 152(17) 174111 (2020)                        |
 |                                                               |
 |          in all publications arising from your use of ONETEP. |
 |                                                               |
 +---------------------------------------------------------------+
 |                                                               |
 |   ONETEP is based on developments described in the following  |
 |   publications:                                               |
 |                                                               |
 |  "Nonorthogonal generalized Wannier function pseudopotential  |
 |   plane-wave method".                                         |
 |   C.-K. Skylaris, A. A. Mostofi, P. D. Haynes, O. Dieguez,    |
 |   M. C. Payne.                                                |
 |   Phys. Rev. B 66 035119 (2002).                              |
 |                                                               |
 |  "Preconditioned iterative minimization for linear-scaling    |
 |   electronic structure calculations".                         |
 |   A. A. Mostofi, P. D. Haynes, C.-K. Skylaris, M. C. Payne.   |
 |   J. Chem. Phys. 119(17), pp.8842-8848 (2003).                |
 |                                                               |
 |  "Total-energy calculations on a real space grid with         |
 |   localized functions and a plane-wave basis".                |
 |   A. A. Mostofi, C.-K. Skylaris, P. D. Haynes, M. C. Payne.   |
 |   Comput. Phys. Commun. 147, pp.788-802 (2002).               |
 |                                                               |
 |  "Accurate kinetic energy evaluation in electronic structure  |
 |   calculations with localized functions on real space grids"  |
 |   C.-K. Skylaris, A. A. Mostofi, P. D. Haynes, C. J. Pickard, |
 |   M. C. Payne.                                                |
 |   Comput. Phys. Commun. 140, pp.315-322 (2001).               |
 |                                                               |
 |  "Accurate ionic forces and geometry optimization in linear-  |
 |   scaling density-functional theory with local orbitals"      |
 |   N. D. M. Hine, M. Robinson, P. D. Haynes, C.-K. Skylaris,   |
 |   M. C. Payne, and A. A. Mostofi.                             |
 |   Phys. Rev. B 83 195102 (2011).                              |
 |                                                               |
 +---------------------------------------------------------------+

Job started: 27-11-2021 18:38 (-0000)
 
Reading parameters from file "32/592nano.dat" ...... done

If your calculation crashes here, before "Checking processes and threads..."
is displayed, then your stack size is insufficient.
If so, use "ulimit -s unlimited" at runtime.
You can disable this check with "check_stack_size F".

Checking processes and threads...
   Determining the default number of threads...
      No default threads set at compilation time: defaulting to 1.
      OpenMP library call suggests 4 threads.
      Hybrid MPI-OpenMP compilation detected.
      Number of MPI processes > 1.
      OMP_NUM_THREADS environment variable present and
      its value matches the one obtained from the OpenMP library call.
      Using this value as default.
      Default threads: 4
      Default applies to threads_max and threads_num_fftboxes.
      Settings in the input file override this default.
   ... done

   Running with 160 MPI processes.
   There are 16 MPI processes running on the same node as the root process.
   Each MPI process is using: 
               1 threads for simulation cell FFTs.
               1 threads for parallel FFT box operations.
               4 threads for loops over batched FFT box operations.
               4 threads in other parallel regions.
... done

Basic input checks...
Resetting ngwf_cg_rotate to TRUE for EDFT calculations
... done

Reading geometry and species blocks from file "32/592nano.dat" ...    
  Number of PPD points along a3 set to 1.  This is 
  the default value, it may have been provided also in the input file.
... done
 Writing xyz coordinates to file "32/592nano.xyz" ... done


--------------------------------------------------------------------------------
---------------------------------- INPUT FILE ----------------------------------
--------------------------------------------------------------------------------

task : singlepoint                                                              
do_properties : true                                                            
dx_format T                                                                     
edft T                                                                          
edft_spin_fix 3                                                                 
output_detail VERBOSE                                                           
timings_level 3                                                                 
write_xyz T                                                                     
edft_update_scheme: pulay_mix                                                   
edft_ham_diis_size: 10                                                          
edft_trial_step: 0.1                                                            
xc_functional OPTPBE                                                            
cutoff_energy 830 eV                                                            
paw T                                                                           
geom_disp_tol 0.06 bohr                                                         
geom_energy_tol 6E-6 hartree                                                    
geom_force_tol 0.012 "ha/bohr"                                                  
geom_max_iter 25                                                                
EDFT_MAXIT 30                                                                   
pdos_max_l = 2                                                                  
dos_smear  0.1 eV                                                               
popn_calculate T                                                                
PDOS_PSEUDOATOMIC T                                                             
PDOS_REDUCE_SWS F                                                               
PDOS_CONSTRUCT_BASIS F                                                          
PDOS_LOWDIN T                                                                   
PDOS_ORTH_ATOM_BLOCKS F                                                         
PDOS_LCAO_OPTIMIZE F                                                            
pdos_optados_output T                                                           
homo_plot 0                                                                     
lumo_plot 0                                                                     
homo_dens_plot -1                                                               
lumo_dens_plot -1                                                               
%BLOCK SPECIES                                                                  
C C 6 4 9.0                                                                     
H H 1 1 9.0                                                                     
Li Li 3 5 9.0                                                                   
%ENDBLOCK SPECIES                                                               
%BLOCK SPECIES_POT                                                              
C "~/pp/paw/c_pbe_abinit.paw"                                                   
H "~/pp/paw/h_pbe_abinit.paw"                                                   
Li "~/pp/paw/li_pbe_abinit.paw"                                                 
%ENDBLOCK SPECIES_POT                                                           
%BLOCK SPECIES_ATOMIC_SET                                                       
C "SOLVE conf=2s2 2p2"                                                          
H "SOLVE conf=1s1"                                                              
Li "SOLVE conf=1s2 2s1 2p0"                                                     
%ENDBLOCK SPECIES_ATOMIC_SET                                                    
%BLOCK SPECIES_LDOS_GROUPS                                                      
C                                                                               
H                                                                               
Li                                                                              
%ENDBLOCK SPECIES_LDOS_GROUPS                                                   
%BLOCK LATTICE_CART                                                             
94.486315650000      0.000000000000       0.000000000000                        
0.000000000000       94.486315650000      0.000000000000                        
0.000000000000       0.000000000000       94.486315650000                       
%ENDBLOCK LATTICE_CART                                                          
%BLOCK POSITIONS_ABS                                                            
C 42.864647 41.478093 31.632102                                                 
C 38.803665 43.769090 31.794143                                                 
C 41.538145 39.134483 31.401138                                                 
C 45.553754 41.505073 31.612696                                                 
C 37.485054 41.417986 31.535559                                                 
C 37.437581 46.089872 31.910150                                                 
C 54.903008 48.581504 31.368794                                                 
C 54.863075 53.248688 31.347313                                                 
C 53.582398 46.241382 31.472664                                                 
C 38.654807 57.785233 31.950099                                                 
C 42.659880 60.178101 31.824252                                                 
C 37.339246 55.434755 32.047620                                                 
C 53.500618 55.569851 31.437141                                                 
C 45.354405 60.206218 31.773160                                                 
C 46.918400 39.184229 31.393910                                                 
C 41.494759 43.794693 31.829116                                                 
C 34.750363 46.065823 31.709881                                                 
C 50.933208 41.547874 31.455319                                                 
C 53.542430 50.907565 31.525450                                                 
C 34.700981 50.737296 31.884463                                                 
C 41.350809 57.822388 31.992670                                                 
C 38.849128 39.108358 31.343080                                                 
C 54.946167 43.912970 31.297126                                                 
C 49.567123 43.875114 31.648952                                                 
C 37.387013 50.757461 32.092004                                                 
C 49.435929 57.897707 31.711198                                                 
C 34.636790 55.407561 31.934305                                                 
C 57.587528 48.596418 31.047571                                                 
C 50.743875 60.242547 31.391019                                                 
C 57.549706 53.254057 30.994644                                                 
C 37.264893 60.102244 31.740892                                                 
C 54.817282 57.912578 31.119391                                                 
C 50.811302 55.564800 31.714981                                                 
C 46.740530 57.881203 31.883371                                                 
C 41.262810 62.485384 31.593297                                                 
C 46.659875 62.550840 31.444478                                                 
C 46.880546 43.849633 31.750033                                                 
C 50.893039 46.219059 31.677498                                                 
C 38.757795 48.436390 32.068793                                                 
C 38.707820 53.111191 32.145946                                                 
C 49.605416 39.209727 31.348857                                                 
C 33.411282 48.386807 31.644872                                                 
C 42.907391 36.824016 31.170228                                                 
C 53.621631 41.573686 31.321095                                                 
C 34.793559 41.393949 31.419393                                                 
C 33.333486 53.066056 31.855481                                                 
C 45.582846 36.849626 31.186218                                                 
C 33.439012 43.701859 31.522271                                                 
C 58.902054 50.935020 30.842256                                                 
C 53.441971 60.225040 31.065390                                                 
C 49.348718 62.554248 31.240897                                                 
C 38.571181 62.444553 31.561967                                                 
C 50.856555 50.889859 31.777173                                                 
C 42.728000 55.497963 32.098006                                                 
C 42.822816 46.141829 31.974219                                                 
C 57.631146 43.940713 31.047673                                                 
C 58.943400 46.271412 30.897188                                                 
C 33.256882 57.721464 31.755970                                                 
C 34.566024 60.060031 31.647632                                                 
C 58.866712 55.586400 30.730483                                                 
C 49.490172 53.216736 31.881129                                                 
C 45.426699 55.524389 32.043624                                                 
C 57.506974 57.903392 30.770091                                                 
C 49.531018 48.541750 31.838013                                                 
C 41.406877 53.142891 32.163837                                                 
C 42.559024 64.826820 31.232348                                                 
C 41.457102 48.462929 32.094542                                                 
C 45.516361 46.170743 31.925896                                                 
C 45.244131 64.855092 31.138917                                                 
C 37.508900 36.751714 31.060080                                                 
C 46.796076 53.196704 32.035780                                                 
C 42.781023 50.816277 32.140094                                                 
C 46.839654 48.518129 31.974484                                                 
C 41.550093 34.477271 30.908202                                                 
C 33.468365 39.030266 31.142079                                                 
C 50.986350 36.866631 31.154682                                                 
C 54.994886 39.225874 31.148845                                                 
C 30.700693 48.369257 31.333319                                                 
C 46.975402 34.518894 30.966857                                                 
C 30.628808 53.049840 31.635242                                                 
C 30.741194 43.674923 31.352785                                                 
C 45.474311 50.843709 32.080597                                                 
C 61.602230 50.949703 30.476270                                                 
C 38.916636 34.483823 30.868481                                                 
C 34.843315 36.773458 30.981684                                                 
C 37.165383 64.765712 31.315762                                                 
C 58.993175 41.586432 30.905852                                                 
C 54.749132 62.549377 30.542511                                                 
C 50.643535 64.897527 30.696376                                                 
C 61.650866 46.306911 30.585652                                                 
C 30.545444 57.674085 31.619680                                                 
C 61.558381 55.586024 30.356364                                                 
C 33.184779 62.388533 31.403815                                                 
C 41.119843 67.142488 30.913451                                                 
C 58.817250 60.229753 30.366463                                                 
C 46.555161 67.198521 30.665277                                                 
C 49.607008 34.567486 30.995191                                                 
C 29.442439 45.986699 31.270838                                                 
C 62.909710 48.610071 30.377963                                                 
C 53.644640 36.933980 31.108308                                                 
C 62.866072 53.283214 30.257621                                                 
C 57.674637 39.310468 31.001116                                                 
C 29.384264 50.695362 31.381960                                                 
C 42.985796 32.178396 30.699618                                                 
C 34.501140 64.673784 31.271293                                                 
C 38.479227 67.069421 31.081006                                                 
C 29.292945 55.350761 31.627768                                                 
C 30.760905 39.066217 31.069163                                                 
C 45.570325 32.197981 30.734134                                                 
C 29.451253 41.300423 31.207208                                                 
C 57.400136 62.493954 30.228513                                                 
C 53.371195 64.915582 30.610478                                                 
C 49.240832 67.149105 30.495435                                                 
H 37.885522 32.683434 30.669854                                                 
H 33.818444 34.964748 30.784713                                                 
C 62.970480 43.926091 30.505105                                                 
C 61.705039 41.678864 30.670521                                                 
C 62.825786 57.962888 30.092823                                                 
C 29.206719 60.026090 31.411929                                                 
C 30.469990 62.286886 31.301320                                                 
C 61.503106 60.197427 30.082957                                                 
C 42.475666 69.457264 30.454150                                                 
C 45.126681 69.460993 30.307648                                                 
H 64.933285 53.296084 29.982291                                                 
H 64.980691 48.625817 30.129484                                                 
H 50.662152 32.773900 30.863247                                                 
H 41.941181 30.385284 30.514855                                                 
H 29.747320 37.255195 30.877058                                                 
H 27.340553 45.925301 31.137840                                                 
H 37.391900 68.837549 30.926025                                                 
H 33.430497 66.449101 31.059624                                                 
H 58.728146 37.513088 30.913900                                                 
H 27.209823 55.325537 31.544080                                                 
H 46.640416 30.416889 30.587945                                                 
H 54.699040 35.139034 30.996269                                                 
H 27.368633 41.309627 31.140476                                                 
H 27.285359 50.753100 31.203463                                                 
H 58.398061 64.267824 29.716893                                                 
H 50.247106 68.916834 29.997044                                                 
H 65.044801 43.958773 30.306434                                                 
H 62.743151 39.873550 30.613921                                                 
H 54.257725 66.529570 29.611176                                                 
H 64.895382 57.963223 29.859573                                                 
H 29.425401 64.086296 31.125611                                                 
H 27.122969 59.969963 31.327351                                                 
H 41.392107 71.247328 30.382836                                                 
H 62.493971 62.015289 29.842577                                                 
H 46.173061 71.256171 30.045687                                                 
C 44.186297 39.076753 37.296068                                                 
C 36.065128 43.728934 37.541960                                                 
C 40.135497 41.402342 37.486219                                                 
C 41.497343 39.083278 37.267549                                                 
C 49.593118 39.095852 37.144561                                                 
C 37.438494 41.419851 37.350723                                                 
C 48.235461 41.419793 37.394805                                                 
C 53.648583 41.429583 37.176069                                                 
C 45.535947 41.408261 37.480027                                                 
C 52.287483 43.755932 37.358227                                                 
C 36.054921 48.395396 37.870630                                                 
C 37.413459 46.060247 37.790600                                                 
C 45.531819 36.740997 37.050553                                                 
C 36.016908 53.073416 37.956692                                                 
C 33.343221 48.386735 37.755679                                                 
C 53.630478 46.101981 37.352729                                                 
C 52.306994 39.098703 37.088357                                                 
C 33.312036 53.067082 37.847804                                                 
C 56.323341 46.117585 37.069147                                                 
C 33.358169 43.711941 37.422192                                                 
C 49.587172 43.754987 37.491351                                                 
C 37.369032 55.415245 37.953726                                                 
C 48.229903 36.739387 37.022220                                                 
C 41.481941 43.735431 37.704430                                                 
C 37.394457 50.741307 37.969544                                                 
C 36.018967 57.748290 37.800561                                                 
C 56.359672 41.437829 36.993741                                                 
C 56.310341 50.798725 37.095396                                                 
C 53.621328 50.780851 37.429891                                                 
C 53.614603 55.464376 37.423916                                                 
C 31.961322 50.732527 37.809957                                                 
C 45.492811 60.122315 37.722802                                                 
C 41.432590 57.759999 37.875903                                                 
C 57.684976 43.781052 36.876854                                                 
C 31.985072 46.025709 37.606923                                                 
C 52.260008 57.795396 37.502458                                                 
C 44.182276 43.740441 37.674388                                                 
C 48.193201 60.141921 37.679560                                                 
C 40.118344 46.066597 37.835573                                                 
C 40.067427 60.091103 37.667363                                                 
C 49.554546 57.792076 37.689713                                                 
C 52.280248 48.437520 37.515974                                                 
C 57.648027 48.460975 36.871457                                                 
C 40.084565 55.424013 37.979008                                                 
C 56.306067 55.464327 37.109130                                                 
C 52.270746 53.118285 37.561685                                                 
C 44.145124 57.774386 37.856204                                                 
C 40.150139 36.731971 36.941921                                                 
C 31.956177 55.413106 37.696654                                                 
C 44.131836 62.459005 37.553922                                                 
C 36.095267 39.085635 36.956979                                                 
C 33.304453 57.740971 37.654094                                                 
C 37.375451 60.074031 37.622918                                                 
C 57.631475 53.131717 36.898006                                                 
C 41.419397 62.422684 37.421982                                                 
C 48.231393 46.087349 37.661654                                                 
C 40.100139 50.745282 37.985584                                                 
C 48.214824 55.453691 37.798141                                                 
C 44.169798 34.392161 36.812819                                                 
C 53.682291 36.720398 36.911679                                                 
C 53.598397 60.144957 37.343374                                                 
C 49.577919 48.432275 37.677225                                                 
C 49.533232 62.497040 37.579949                                                 
C 41.451644 53.086622 37.995793                                                 
C 45.503714 55.441599 37.896856                                                 
C 49.572331 53.112481 37.740765                                                 
C 45.527992 46.082186 37.751369                                                 
C 41.463011 48.409505 37.915468                                                 
C 32.019990 41.361430 37.074986                                                 
C 37.450331 36.755919 37.050659                                                 
C 49.604374 34.379290 36.899618                                                 
C 41.486854 34.439881 36.835614                                                 
C 57.653935 57.801532 36.936416                                                 
C 57.727765 39.091404 36.801256                                                 
C 33.429296 39.092757 36.884629                                                 
C 45.476235 64.804104 37.529708                                                 
C 44.157283 53.095924 37.942840                                                 
C 48.225578 50.768263 37.784855                                                 
C 29.199360 50.733139 37.734073                                                 
C 44.168694 48.418342 37.863917                                                 
C 60.359832 48.471424 36.452017                                                 
C 52.239811 62.502620 37.458237                                                 
C 45.519267 50.758589 37.881649                                                 
C 60.407993 43.810266 36.559983                                                 
C 29.233484 45.982105 37.615034                                                 
C 56.314495 60.137612 37.150681                                                 
C 56.367757 36.767518 36.872733                                                 
C 29.243391 55.409962 37.452501                                                 
C 48.182136 64.832624 37.588899                                                 
C 60.323002 53.142411 36.410573                                                 
C 52.298658 34.425023 36.992614                                                 
C 36.015278 62.413303 37.268659                                                 
C 31.942485 60.079276 37.361414                                                 
C 40.062712 64.752210 37.065601                                                 
C 45.562112 32.099652 36.617018                                                 
C 27.912823 53.059445 37.525752                                                 
C 61.682802 46.158252 36.390090                                                 
C 27.885857 48.355693 37.928431                                                 
C 61.638048 50.820129 36.311828                                                 
C 48.201912 32.086875 36.734309                                                 
C 29.332789 41.376799 37.010140                                                 
C 33.322097 62.415967 37.373784                                                 
C 60.411775 39.167732 36.585506                                                 
C 37.384770 64.702426 37.063198                                                 
C 60.361147 57.815595 36.521553                                                 
H 36.432680 35.012914 36.496747                                                 
H 40.444630 32.666744 36.479396                                                 
C 61.720927 41.454392 36.446564                                                 
C 44.079283 67.176249 37.497167                                                 
H 32.413892 37.307357 36.495691                                                 
C 61.640773 55.471655 36.312876                                                 
C 27.980322 43.630833 37.335231                                                 
C 41.416541 67.074701 37.113964                                                 
H 57.386280 34.998511 36.423838                                                 
C 27.946626 57.750349 37.350163                                                 
C 29.262738 60.029634 37.304015                                                 
H 53.320431 32.619222 36.787653                                                 
C 53.615222 64.891067 37.611759                                                 
H 44.512195 30.317268 36.400544                                                 
H 25.854686 53.072224 37.191550                                                 
C 57.706924 62.512124 37.221971                                                 
C 49.555066 67.235819 37.666803                                                 
H 63.748209 46.169127 36.115179                                                 
H 28.331996 39.576829 36.727421                                                 
H 25.783789 48.351403 37.853820                                                 
H 63.657395 50.814935 35.762965                                                 
H 49.245582 30.291555 36.595702                                                 
H 61.454836 37.367150 36.493087                                                 
H 32.307922 64.126434 36.708673                                                 
H 36.350568 66.448260 36.540652                                                 
H 63.794783 41.477209 36.268958                                                 
H 63.639963 55.477685 35.704070                                                 
H 25.898852 43.618395 37.225178                                                 
H 25.869147 57.746006 37.199073                                                 
C 61.647527 60.172752 36.411779                                                 
H 40.320916 68.841868 36.920680                                                 
C 45.480609 69.512159 37.573427                                                 
H 28.240420 61.837808 37.100590                                                 
C 52.260302 67.179673 37.804746                                                 
C 56.318176 64.827850 37.663660                                                 
C 60.360124 62.463553 36.835683                                                 
C 48.187776 69.517805 37.576359                                                 
H 63.690740 60.185893 36.032872                                                 
H 44.466086 71.342284 37.527650                                                 
H 53.291520 68.964846 38.134473                                                 
H 57.362518 66.601701 38.002839                                                 
H 61.406817 64.265979 36.851635                                                 
H 49.233724 71.319983 37.520221                                                 
H 28.662038 37.954176 44.620699                                                 
H 40.422700 30.147607 44.648726                                                 
H 32.535704 35.270979 44.143941                                                 
H 36.511804 32.705016 44.509798                                                 
H 45.143199 29.876787 44.547923                                                 
H 26.605780 42.203469 44.905219                                                 
C 41.573269 31.872954 44.460741                                                 
C 29.820821 39.677546 44.454178                                                 
H 61.880063 38.007591 43.541781                                                 
C 33.693519 37.005033 43.947945                                                 
C 37.645074 34.443129 44.295699                                                 
C 44.184146 31.717317 44.394978                                                 
H 49.318720 31.960833 44.432867                                                 
H 64.557010 42.011178 43.380137                                                 
C 28.662863 42.068685 44.625383                                                 
H 65.492836 56.170385 43.752594                                                 
H 26.868816 46.890453 44.230552                                                 
H 27.789969 60.893367 45.284999                                                 
H 53.460554 34.060901 44.521421                                                 
H 57.599756 36.114725 44.637476                                                 
H 30.344508 64.855786 44.792462                                                 
H 27.215877 51.582455 44.963408                                                 
H 65.226716 51.422977 43.387868                                                 
H 43.074948 71.194022 44.388125                                                 
H 63.376725 60.405693 44.170020                                                 
H 27.550047 56.197580 45.433378                                                 
H 64.871835 46.749075 43.145288                                                 
C 32.461298 39.442903 44.144353                                                 
C 40.329889 34.251567 44.374679                                                 
H 47.883635 70.868506 44.356052                                                 
C 36.413105 36.801861 44.082579                                                 
H 38.804587 69.114575 43.974996                                                 
C 60.966010 39.881084 43.461352                                                 
C 62.481029 42.144442 43.452356                                                 
H 34.570919 67.060849 44.357958                                                 
C 48.378186 33.802918 44.176900                                                 
C 63.411303 56.281257 43.775751                                                 
C 28.958972 46.761367 44.325091                                                 
H 59.424220 63.024710 44.402882                                                 
C 29.843175 60.771011 44.978371                                                 
C 45.700243 33.934464 44.254879                                                 
H 51.761124 68.171530 44.317315                                                 
H 55.558825 65.562918 44.572101                                                 
C 30.099233 44.307903 44.415935                                                 
C 31.290033 62.995791 44.723937                                                 
C 52.556093 35.879862 44.045608                                                 
C 62.225336 58.673198 44.003200                                                 
C 56.720970 37.924549 44.076415                                                 
C 43.991264 69.322434 44.372883                                                 
C 29.292245 51.441836 44.664028                                                 
C 63.140650 51.569298 43.401579                                                 
C 29.577051 56.084941 44.937276                                                 
C 62.798548 46.875793 43.280324                                                 
C 46.708001 69.147701 44.372471                                                 
C 49.863099 36.006532 44.086005                                                 
C 58.273512 40.067695 43.716488                                                 
C 39.728081 67.249531 44.063502                                                 
C 54.056258 38.093127 44.004751                                                 
C 30.440078 49.020172 44.462467                                                 
C 61.356739 44.564838 43.416653                                                 
C 35.488955 65.184167 44.210003                                                 
C 41.810676 36.524865 44.066957                                                 
C 61.974560 54.045219 43.605110                                                 
C 33.991410 41.715670 44.029167                                                 
C 31.000631 58.353485 44.824912                                                 
C 45.401597 50.400306 43.595511                                                 
C 30.758469 53.697135 44.772477                                                 
C 37.903589 39.107832 43.883741                                                 
C 61.662331 49.306947 43.367563                                                 
C 46.904494 52.647862 43.624497                                                 
C 58.297955 61.267919 44.263664                                                 
C 42.697795 50.575832 43.666013                                                 
C 46.597032 47.972716 43.535675                                                 
C 44.494760 36.366266 44.018611                                                 
C 33.946566 62.904920 44.354591                                                 
C 50.573025 66.455279 44.299589                                                 
C 42.461411 67.146916 44.232282                                                 
C 32.818839 44.141732 44.172466                                                 
C 54.403025 63.828198 44.440242                                                 
C 59.548158 58.869993 44.058216                                                 
C 45.705662 55.077967 43.705837                                                 
C 49.607441 52.471140 43.593195                                                 
C 41.196437 48.321085 43.668956                                                 
C 45.089128 45.722041 43.537665                                                 
C 38.195906 65.036530 44.117009                                                 
C 41.502392 53.001666 43.757440                                                 
C 49.297090 47.796289 43.509367                                                 
C 47.913602 66.713435 44.339378                                                 
C 40.599629 38.947372 43.847557                                                 
C 36.697465 41.538891 43.825886                                                 
C 42.388511 45.885128 43.599020                                                 
C 43.002403 55.262976 43.768032                                                 
C 50.810581 50.043622 43.532130                                                 
C 48.669072 38.455910 43.821296                                                 
C 55.618500 61.440715 44.389342                                                 
C 33.148345 48.845106 44.235795                                                 
C 52.863584 40.524027 43.694894                                                 
C 57.065827 42.527947 43.593571                                                 
C 51.746260 64.054649 44.127389                                                 
C 58.585789 44.785041 43.496732                                                 
C 45.974039 38.617512 43.782438                                                 
C 46.281850 43.294155 43.536394                                                 
C 38.503623 48.491092 43.788505                                                 
C 34.318738 46.400469 44.036094                                                 
C 33.445361 53.517393 44.382906                                                 
C 50.486327 45.365392 43.499116                                                 
C 38.806575 53.178434 43.884438                                                 
C 51.112442 54.715447 43.672883                                                 
C 40.892924 43.632483 43.636454                                                 
C 50.176441 40.692250 43.642140                                                 
C 47.211169 57.324428 43.766304                                                 
C 33.713276 58.189903 44.459127                                                 
C 59.222236 54.192226 43.655562                                                 
C 42.088517 41.201887 43.663997                                                 
C 38.188996 43.791578 43.734827                                                 
C 48.975573 43.121955 43.522902                                                 
C 44.779186 41.036858 43.628238                                                 
C 58.920299 49.506956 43.467604                                                 
C 37.318635 50.925370 43.921229                                                 
C 35.195856 60.450281 44.295865                                                 
C 37.001637 46.226790 43.826440                                                 
C 34.623891 51.101191 44.160350                                                 
C 54.380815 42.742859 43.587984                                                 
C 53.507405 49.859486 43.520083                                                 
C 49.913686 57.132341 43.772813                                                 
C 43.653770 64.632091 44.192826                                                 
C 41.810479 57.684180 43.875934                                                 
C 58.018845 56.599962 43.855503                                                 
C 34.918291 55.774068 44.270947                                                 
C 53.190078 45.185023 43.517379                                                 
C 57.402688 47.225676 43.499758                                                 
C 39.396712 62.562685 44.112973                                                 
C 37.605601 55.613654 44.020237                                                 
C 57.723633 51.947883 43.548454                                                 
C 54.687520 47.424934 43.513133                                                 
C 46.372976 64.439609 44.171314                                                 
C 53.822736 54.532710 43.674703                                                 
C 55.021582 52.118445 43.567536                                                 
C 39.088352 57.867417 43.990829                                                 
C 46.013379 59.753081 43.880874                                                 
C 37.893599 60.290074 44.106514                                                 
C 54.111793 59.191354 44.064791                                                 
C 43.318162 59.934060 43.944919                                                 
C 50.225185 61.794299 44.003466                                                 
C 42.134026 62.389836 44.095976                                                 
C 51.419544 59.378156 43.944228                                                 
C 55.325227 56.775503 43.856095                                                 
C 47.534787 62.007473 43.989343                                                 
H 43.834797 29.887372 50.315172                                                 
H 27.944958 39.595800 50.760404                                                 
H 48.542712 29.736255 50.297670                                                 
H 60.831651 36.370022 50.863884                                                 
H 63.275600 40.411423 51.278581                                                 
H 25.691716 43.707798 51.219387                                                 
H 28.462956 61.724000 51.466762                                                 
H 25.981307 57.717286 51.200999                                                 
H 35.961651 34.743123 50.718706                                                 
H 39.882430 32.334817 50.273283                                                 
H 31.927635 37.197803 50.952573                                                 
H 63.535721 49.740977 51.135197                                                 
H 36.691860 66.086612 52.092574                                                 
H 63.768753 59.001068 52.007731                                                 
H 44.837487 70.596313 52.484563                                                 
H 63.433199 45.101825 50.953477                                                 
H 32.586022 63.856556 51.947732                                                 
H 52.640809 31.947265 50.207727                                                 
H 56.735639 34.142614 50.330874                                                 
H 63.638524 54.359396 51.561712                                                 
H 61.510447 63.149010 52.333985                                                 
H 40.743515 68.359566 52.114854                                                 
H 49.594594 70.525800 52.406301                                                 
H 25.884591 53.077513 51.247101                                                 
H 25.841255 48.396318 51.788233                                                 
C 44.952430 31.639930 50.177057                                                 
C 47.539980 31.558052 50.162726                                                 
C 29.006312 41.387865 50.756947                                                 
C 59.859067 38.203281 50.690051                                                 
C 27.763334 43.657516 51.007793                                                 
C 61.211218 40.456560 50.976322                                                 
C 28.058399 57.691130 51.041357                                                 
C 29.424666 59.896917 51.180585                                                 
H 57.559864 65.621602 52.183075                                                 
H 53.614781 68.095260 52.103673                                                 
C 40.978042 34.103259 50.134612                                                 
C 37.017625 36.538037 50.430886                                                 
C 33.015344 38.971019 50.644860                                                 
C 61.719121 59.108373 51.660443                                                 
C 45.856995 68.828528 52.065473                                                 
C 60.465103 61.420927 51.834921                                                 
C 51.658893 33.779320 50.037392                                                 
C 48.510675 68.798658 51.985445                                                 
C 55.767899 35.978623 50.137180                                                 
C 61.370126 45.156767 50.650607                                                 
C 61.531326 49.823554 50.540529                                                 
C 33.561039 62.096926 51.358116                                                 
C 37.640836 64.384088 51.331420                                                 
C 27.899537 48.349070 51.439257                                                 
C 27.958149 53.025549 51.024169                                                 
C 61.636916 54.460396 50.965144                                                 
C 41.741208 66.598533 51.612719                                                 
C 43.616544 33.994638 50.044071                                                 
C 49.018294 33.829138 49.999256                                                 
C 31.690687 41.279169 50.559924                                                 
C 57.183798 38.213434 50.253014                                                 
C 29.120318 45.994555 51.028951                                                 
C 60.008434 42.847556 50.584073                                                 
C 29.300753 55.301236 50.837133                                                 
C 39.675742 36.418434 50.136901                                                 
C 32.115537 59.876444 51.031668                                                 
C 35.701010 38.864472 50.521612                                                 
C 53.107811 36.020757 49.957825                                                 
C 56.496728 63.900998 51.687232                                                 
C 52.537388 66.371963 51.656993                                                 
C 29.215085 50.672332 51.074400                                                 
C 45.395526 50.320417 49.375914                                                 
C 60.395940 56.842256 51.066502                                                 
C 60.143738 47.511010 50.540871                                                 
C 44.427971 66.610652 51.532636                                                 
C 36.223843 62.087256 51.193816                                                 
C 60.270216 52.197691 50.641333                                                 
C 40.336428 64.357634 51.341434                                                 
C 57.795051 61.593990 51.450758                                                 
C 49.863814 66.500006 51.554885                                                 
C 44.103049 52.692901 49.480515                                                 
C 48.102843 50.248036 49.366922                                                 
C 43.984074 48.015331 49.370512                                                 
C 53.860643 64.041029 51.435024                                                 
C 45.517610 54.998719 49.574210                                                 
C 49.514624 52.550615 49.453040                                                 
C 45.040942 36.293448 49.842999                                                 
C 41.398242 52.749811 49.578518                                                 
C 49.390083 47.869202 49.358811                                                 
C 47.719617 36.212275 49.817643                                                 
C 33.082009 43.587976 50.333909                                                 
C 41.283156 48.079190 49.467856                                                 
C 45.277114 45.636273 49.348929                                                 
C 31.800795 45.935853 50.520571                                                 
C 55.914972 40.625761 49.995316                                                 
C 57.315461 42.913461 50.118595                                                 
C 32.004502 55.254934 50.555613                                                 
C 33.401898 57.538448 50.602765                                                 
C 48.222963 54.929673 49.566436                                                 
C 39.987858 50.445173 49.575337                                                 
C 47.975978 45.563585 49.344220                                                 
C 51.820752 38.420884 49.749282                                                 
C 41.074188 38.735339 49.871850                                                 
C 37.090917 41.182774 50.098600                                                 
C 57.708947 56.956127 50.624197                                                 
C 31.913132 50.604543 50.542486                                                 
C 45.744084 64.282999 50.958462                                                 
C 57.443163 47.605805 50.077099                                                 
C 56.418520 59.313912 50.810276                                                 
C 37.518128 59.765525 50.587515                                                 
C 48.435520 64.216317 51.000126                                                 
C 57.576136 52.298895 50.157447                                                 
C 41.636867 62.026360 50.692198                                                 
C 40.100118 55.112556 49.795949                                                 
C 44.221655 57.363854 49.808908                                                 
C 52.218055 52.471123 49.563884                                                 
C 52.082478 47.786807 49.472483                                                 
C 39.870579 45.770014 49.574168                                                 
C 49.136272 38.502962 49.661689                                                 
C 43.866712 43.334658 49.442715                                                 
C 43.750382 38.663402 49.717565                                                 
C 35.783659 43.526851 50.043561                                                 
C 53.232559 40.712999 49.707547                                                 
C 33.199004 48.248916 50.308460                                                 
C 33.297284 52.901920 50.313443                                                 
C 39.771347 41.104781 49.823036                                                 
C 41.511199 57.412458 49.929908                                                 
C 56.051283 45.305207 49.870241                                                 
C 53.497859 50.087349 49.583941                                                 
C 41.166027 43.403436 49.568841                                                 
C 36.107351 57.496078 50.364172                                                 
C 52.443641 61.753009 50.821558                                                 
C 37.282062 50.496032 49.785592                                                 
C 56.189695 49.997617 49.878024                                                 
C 49.260430 43.183491 49.413776                                                 
C 40.217828 59.748825 50.352547                                                 
C 49.634075 57.226046 49.821016                                                 
C 56.313631 54.669418 50.132277                                                 
C 44.331313 62.001955 50.516623                                                 
C 45.158572 40.966226 49.520469                                                 
C 37.178758 45.827916 49.793500                                                 
C 37.400013 55.152731 49.997487                                                 
C 53.365322 45.393468 49.566238                                                 
C 47.851478 40.886402 49.501954                                                 
C 35.879158 48.194271 49.907408                                                 
C 51.958663 43.097286 49.521180                                                 
C 35.990727 52.852035 49.988965                                                 
C 45.631835 59.658490 50.072748                                                 
C 53.731607 59.413875 50.469162                                                 
C 49.743928 61.856110 50.600002                                                 
C 53.626206 54.771017 49.824931                                                 
C 48.337603 59.587404 50.096750                                                 
C 52.338136 57.142288 49.974048                                                 
Li 59.698478 41.409006 40.021208                                                
Li 31.751409 60.539603 41.261212                                                
Li 30.538135 42.081122 40.916525                                                
Li 46.494768 67.590150 40.829596                                                
Li 60.006260 59.874321 40.206689                                                
Li 54.829434 62.333001 40.656973                                                
Li 41.103944 64.929571 40.833876                                                
Li 39.554761 35.308911 40.564028                                                
Li 28.744908 54.160266 41.334161                                                
Li 30.514098 48.154446 40.849076                                                
Li 50.854135 36.842735 40.336453                                                
Li 62.726779 53.146530 39.627136                                                
Li 62.619578 52.533865 47.401737                                                
Li 59.913657 46.961731 40.114284                                                
Li 34.951621 37.755866 40.376118                                                
Li 46.431525 33.783952 40.288942                                                
Li 55.614052 35.857024 40.755950                                                
Li 34.913924 64.855576 40.306121                                                
Li 56.360336 64.473495 33.646822                                                
Li 60.381491 47.013887 46.728803                                                
Li 51.584072 67.115336 33.861316                                                
Li 51.673846 64.744766 47.980063                                                
Li 34.862278 64.251984 48.128707                                                
Li 40.617591 65.385497 47.615556                                                
Li 59.773070 59.811263 47.987297                                                
Li 46.654097 68.443833 48.192615                                                
Li 28.323511 48.583329 47.669929                                                
Li 60.581964 40.384651 47.193197                                                
Li 34.245463 36.771821 47.657276                                                
Li 27.799262 48.197018 34.125010                                                
Li 43.786952 69.031932 34.063694                                                
Li 39.993600 34.744440 33.994560                                                
%ENDBLOCK POSITIONS_ABS                                                         

--------------------------------------------------------------------------------
-------------------------------- END INPUT FILE --------------------------------
--------------------------------------------------------------------------------


 
<<<<<<<<<<<<<<<<<<<<<<<<<<<<<<<<< Full system >>>>>>>>>>>>>>>>>>>>>>>>>>>>>>>>>>
<<<<<<<<<<<<<<<<<<<<<<<<<<< PAW Dataset information >>>>>>>>>>>>>>>>>>>>>>>>>>>
File: ~/pp/paw/c_pbe_abinit.paw; rc = 1.25 bohr; shape type =  3; rshape = 1.25 bohr;
  Atomic number:  6;  ionic charge:  4.000000
    Partial Wave 1: l = 0
    Partial Wave 2: l = 0
    Partial Wave 3: l = 1
    Partial Wave 4: l = 1
  Core charge supplied for Nonlinear Core Corrections
File: ~/pp/paw/h_pbe_abinit.paw; rc = 0.90 bohr; shape type =  3; rshape = 0.90 bohr;
  Atomic number:  1;  ionic charge:  1.000000
    Partial Wave 1: l = 0
    Partial Wave 2: l = 0
File: ~/pp/paw/li_pbe_abinit.paw; rc = 1.42 bohr; shape type =  3; rshape = 1.42 bohr;
  Atomic number:  3;  ionic charge:  3.000000
    Partial Wave 1: l = 0
    Partial Wave 2: l = 0
    Partial Wave 3: l = 0
    Partial Wave 4: l = 1
    Partial Wave 5: l = 1
<<<<<<<<<<<<<<<<<<<<<<<<<<<<<<<<<<<<<<< >>>>>>>>>>>>>>>>>>>>>>>>>>>>>>>>>>>>>>>

-------------------------- Atom counting information ---------------------------
Symbol    Natoms    Nngwfs    Nprojs
  C        484      1936      3872
  H        108       108       216
  Li        32       160       288
.......   ......    ......    ......
Totals:    624      2204      4376
--------------------------------------------------------------------------------

=============================== PSINC grid sizes ===============================
                      Simulation cell:  189 x 189 x 189
                              FFT-box:  117 x 117 x 117
                                  PPD:    7 x   7 x   1
Grid space d1=  0.499927596032a0 (KE cutoff=  30.39413Eh = 827.06648eV)
Grid space d2=  0.499927596032a0 (KE cutoff=  30.39413Eh = 827.06648eV)
Grid space d3=  0.499927596032a0 (KE cutoff=  30.39413Eh = 827.06648eV)
================================================================================
  
WARNING in cell_grid_distribute:
Average of less than one 23-slab per proc, so workload cannot be
equally balanced between procs.

********************* Fourier parallelisation information **********************
       Coarse grid (whole simulation cell) dimensions:    189   189   189
          Real-space ('12') slabs/proc (min max mean):      1     2     1
         Recip-space ('23') slabs/proc (min max mean):      0     1     0
********************************************************************************

********************* Fourier parallelisation information **********************
       Double grid (whole simulation cell) dimensions:    378   378   378
          Real-space ('12') slabs/proc (min max mean):      2     3     2
         Recip-space ('23') slabs/proc (min max mean):      1     2     1
********************************************************************************

Atom SCF Calculation for C  : Z (AE atom) =   6 : Z (PS atom) =   4
Config String: 2s2 2p2
Orbitals (num,occ):  2     2.00 2.00
Orbitals   (num,l):  2        0    1
Real-space Grid (nr,dr,rmax): 1377    0.0065406977    9.0000000000
Spherical Bessel Basis (nsws,lmax,cutoff):   37    2  183.0099912382
Confining potential (l,width,scale):  0    3.0000000000  100.0000000000
Confining potential (l,width,scale):  1    3.0000000000  100.0000000000
  1         -5.4795186097   -1.3252230651    4.5135247139   -1.6370402178
  2         -5.4480873667   -1.4027986130    4.4305957006   -1.6109824140
  3         -5.4553175168   -1.4212842775    4.4102621601   -1.6059044058
  4         -5.4627851864   -1.4247099971    4.4065125496   -1.6052912254
  5         -5.4662317525   -1.4266823431    4.4043718731   -1.6049357348
  6         -5.4679531179   -1.4277361345    4.4032352159   -1.6047498153
  7         -5.4688370531   -1.4282876632    4.4026436340   -1.6046546171
  8         -5.4692962224   -1.4285743132    4.4023378281   -1.6046060967
  9         -5.4695360875   -1.4287229388    4.4021801230   -1.6045813828
 10         -5.4696617783   -1.4287999625    4.4020988354   -1.6045687883
 11         -5.4697277645   -1.4288398966    4.4020569195   -1.6045623641
 12         -5.4697624500   -1.4288606199    4.4020352864   -1.6045590836
 13         -5.4697806994   -1.4288713865    4.4020241086   -1.6045574064
 14         -5.4697903086   -1.4288769875    4.4020183254   -1.6045565478
 15         -5.4697953717   -1.4288799052    4.4020153292   -1.6045561077
 16         -5.4697980412   -1.4288814272    4.4020137746   -1.6045558818
 17         -5.4697994496   -1.4288822223    4.4020129668   -1.6045557657
 18         -5.4698001930   -1.4288826382    4.4020125465   -1.6045557059
 19         -5.4698005858   -1.4288828561    4.4020123274   -1.6045556751
 20         -5.4698007933   -1.4288829704    4.4020122131   -1.6045556592
 21         -5.4698009031   -1.4288830304    4.4020121533   -1.6045556509
 22         -5.4698009612   -1.4288830620    4.4020121220   -1.6045556467
Atom SCF converged after  22 iterations to a total energy of     -5.46980096

Atom SCF Calculation for H  : Z (AE atom) =   1 : Z (PS atom) =   1
Config String: 1s1
Orbitals (num,occ):  1     1.00
Orbitals   (num,l):  1        0
Real-space Grid (nr,dr,rmax): 1377    0.0065406977    9.0000000000
Spherical Bessel Basis (nsws,lmax,cutoff):   37    1  183.0099912382
Confining potential (l,width,scale):  0    3.0000000000  100.0000000000
  1         -0.3687944832   -0.2607687933    0.2820952946   -0.2613406499
  2         -0.4328656062   -0.2590521405    0.2895573663   -0.2701762133
  3         -0.4633856573   -0.2560091938    0.2934204754   -0.2757429988
  4         -0.4750266404   -0.2549676794    0.2946557510   -0.2779015032
  5         -0.4793045155   -0.2546870695    0.2949704774   -0.2786577123
  6         -0.4808919118   -0.2546234645    0.2950332622   -0.2789201171
  7         -0.4814942533   -0.2546130669    0.2950388368   -0.2790132353
  8         -0.4817280090   -0.2546133926    0.2950352123   -0.2790473458
  9         -0.4818204053   -0.2546148712    0.2950319888   -0.2790602287
 10         -0.4818574273   -0.2546158825    0.2950301416   -0.2790652181
 11         -0.4818724050   -0.2546164247    0.2950292178   -0.2790671871
 12         -0.4818785049   -0.2546166894    0.2950287833   -0.2790679748
 13         -0.4818810009   -0.2546168128    0.2950285855   -0.2790682928
 14         -0.4818820255   -0.2546168689    0.2950284970   -0.2790684221
 15         -0.4818824471   -0.2546168940    0.2950284580   -0.2790684748
 16         -0.4818826210   -0.2546169051    0.2950284408   -0.2790684964
 17         -0.4818826928   -0.2546169100    0.2950284333   -0.2790685053
Atom SCF converged after  17 iterations to a total energy of     -0.48188269

Atom SCF Calculation for Li : Z (AE atom) =   3 : Z (PS atom) =   3
Config String: 1s2 2s1 2p0
Orbitals (num,occ):  3     2.00 1.00 0.00
Orbitals   (num,l):  3        0    0    1
Real-space Grid (nr,dr,rmax): 1377    0.0065406977    9.0000000000
Spherical Bessel Basis (nsws,lmax,cutoff):   37    2  183.0099912382
Confining potential (l,width,scale):  0    3.0000000000  100.0000000000
Confining potential (l,width,scale):  1    3.0000000000  100.0000000000
  1         -6.1314629607   -4.7499359229    2.5388576516   -1.0480231927
  2         -7.0450508208   -4.1702030791    2.9795337774   -1.2623862962
  3         -7.3518474013   -3.9564527259    3.2037296734   -1.3880788964
  4         -7.4613386962   -3.8947565558    3.2914990517   -1.4402825036
  5         -7.5001516047   -3.8789668192    3.3221434609   -1.4602864917
  6         -7.5136113510   -3.8755528126    3.3322769691   -1.4678164580
  7         -7.5181182589   -3.8751724459    3.3354399675   -1.4706394447
  8         -7.5195538340   -3.8753832694    3.3363346353   -1.4716958846
  9         -7.5199777516   -3.8756112412    3.3365363545   -1.4720903919
 10         -7.5200869011   -3.8757624244    3.3365501247   -1.4722372325
 11         -7.5201065703   -3.8758489541    3.3365264569   -1.4722916218
 12         -7.5201049812   -3.8758952022    3.3365040630   -1.4723116262
 13         -7.5201006323   -3.8759190019    3.3364892955   -1.4723189110
 14         -7.5200980758   -3.8759285770    3.3364824548   -1.4723210036
 15         -7.5200963811   -3.8759342877    3.3364781194   -1.4723220111
 16         -7.5200953120   -3.8759376792    3.3364754203   -1.4723224913
 17         -7.5200946593   -3.8759396866    3.3364737619   -1.4723227171
 18         -7.5200942701   -3.8759408718    3.3364727530   -1.4723228213
 19         -7.5200940419   -3.8759415700    3.3364721439   -1.4723228682
 20         -7.5200939099   -3.8759419808    3.3364717784   -1.4723228886
 21         -7.5200938343   -3.8759422222    3.3364715600   -1.4723228969
Atom SCF converged after  21 iterations to a total energy of     -7.52009383

Determining parallel strategy ...
... using space-filling curve
... NGWF load balancing: max     16;  min     12;  average     14
... Projector load balancing: max     32;  min     24;  average     27
... done
Calculating Ewald energy ...
              Ewald: real-space energy =   37165.182106
        Ewald: reciprocal-space energy =   36195.774575
         Ewald: (sum_charge)**2 Energy =    2835.962212
         Ewald: (sum_charge**2) Energy =     251.837030
                          Ewald Energy =   70273.157439
Basis initialisation ...... NGWF spheres initialised
... Projector spheres initialised
... NGWF tight boxes initialised
... Projector tight boxes initialised
... Tight-boxes gathered
... NGWF basis size (local,global):     279614  44489692
... PAW projector initialisation
... done

============================= Charge Augmentation ==============================
                           Aug box size:   13 x  13 x  13
================================================================================

========================== Sparse matrix information ===========================
                        Overlap matrix filling:  37.92%
                        Density kernel filling: 100.00%
              NGWF-Proj overlap matrix filling:  10.64%
                    Aug Overlap matrix filling:  42.32%
                    Hamiltonian matrix filling:  42.32%
                  NGWF diagonal matrix filling:   0.18%
                             KS matrix filling: 100.00% 
                           KSKS matrix filling: 100.00% 
================================================================================

Sparse matrix initialisation ... done
NGWF initialisation ...... done
============ Calculation of NGWF S^-1 using Hotelling algorithm ================ 
         Iteration  |  Frobenius norm and Maximum abs value    (of I-S*S_n^-1)   
               1       0.46664689E+02     0.99689288E+00
               2       0.46396302E+02     0.99380238E+00
               3       0.45896693E+02     0.98766988E+00
               4       0.45022944E+02     0.97559020E+00
               5       0.43641351E+02     0.95211275E+00
               6       0.41722671E+02     0.90753282E+00
               7       0.39330788E+02     0.82636647E+00
               8       0.36500214E+02     0.79149532E+00
               9       0.33382261E+02     0.77337139E+00
              10       0.30305323E+02     0.75154183E+00
              11       0.27194860E+02     0.73686017E+00
              12       0.23423262E+02     0.71449464E+00
              13       0.18478623E+02     0.68615020E+00
              14       0.12474026E+02     0.64314842E+00
              15       0.67491492E+01     0.57309342E+00
              16       0.31783428E+01     0.46579424E+00
              17       0.16891825E+01     0.35795098E+00
              18       0.87829727E+00     0.25863695E+00
              19       0.38240105E+00     0.14128731E+00
              20       0.11493026E+00     0.45651604E-01
              21       0.12794764E-01     0.51134625E-02
              22       0.16356596E-03     0.65372434E-04
              23       0.26753807E-07     0.10692705E-07
              24       0.61023198E-13     0.62172489E-14
================================================================================
Calculating core density ...
================================= Core Density =================================
               Core den box size:   21 x  21 x  21
================================================================================
 ... done
Up spin density kernel initialisation ...... done
Down spin density kernel initialisation ...... done

Writing density kernel to file "32/592nano.dkn" ... done

>>> Optimising kernel for current NGWFs:

--------------------------- Ensemble-DFT optimisation --------------------------
Running ScaLAPACK on  160 processor(s).

--------------------------------------------------------------------------------
  Iter                              Commutator    Free_energy(A=E-TS)     DeltaA
#    0                          0.001247483308   -3064.88858874872449  -3.06E+03

Step                       =       0.381966011250
Energy (E)                 =   -3064.861090795949
Entropy (-TS)              =      -0.027497952775
Free energy (A=E-TS)       =   -3064.888588748724
Est. 0K Energy 0.5*(E+A)   =   -3064.874839772337
Residual Non-orthogonality =       0.000000000000
Residual N_electrons       =       0.000000000000

Spin          Integrated_Ne            Fermi_level     Delta_Fermi_level
   1      1070.000000000000        -0.234631938550             -2.35E-01
   2      1070.000000000000        -0.234631938550             -2.35E-01

                           Spin 1           |                 Spin 2           |
     Orb |    H-eigenvalues     Occupancies |    H-eigenvalues     Occupancies |
       1 |    -1.9244921046    1.0000000000 |    -1.9244921046    1.0000000000 | 
                          ------                             ------
    1066 |    -0.2448093076    0.9613487856 |    -0.2448093076    0.9613487856 | 
    1067 |    -0.2426282824    0.9258790766 |    -0.2426282824    0.9258790766 | 
    1068 |    -0.2405856346    0.8676144097 |    -0.2405856346    0.8676144097 | 
    1069 |    -0.2388789123    0.7926688533 |    -0.2388789123    0.7926688533 | 
    1070 |    -0.2351254620    0.5388819345 |    -0.2351254620    0.5388819345 | 
                 - Gap at zero temperature - |     - Gap at zero temperature -
                  Finite temp. Fermi level   |      Finite temp. Fermi level  
    1071 |    -0.2340322977    0.4528030326 |    -0.2340322977    0.4528030326 | 
    1072 |    -0.2310689056    0.2450633937 |    -0.2310689056    0.2450633937 | 
    1073 |    -0.2290597403    0.1468453163 |    -0.2290597403    0.1468453163 | 
    1074 |    -0.2260398434    0.0622007309 |    -0.2260398434    0.0622007309 | 
    1075 |    -0.2219993722    0.0181806564 |    -0.2219993722    0.0181806564 | 
                          ------                             ------
    2204 |     0.5613241428    0.0000000000 |     0.5613241428    0.0000000000 | 

                            |  Abs_value |  Threshold | Converged
     Delta_Free_energy/atom |   4.91E+00 |   1.00E-06 |        No
     Delta_Energy/atom      |   4.91E+00 |   1.00E-04 |        No
     Delta_Entropy/atom     |   4.41E-05 |   1.00E-04 |       Yes
     Commutator             |   1.25E-03 |   1.00E-05 |        No
     Delta_Fermi_level      |   2.35E-01 |   1.00E-03 |        No

  Line search of the free energy minimum:
  Step_type        Step             Free_energy   Predicted_free_energy
.   Initial    0.000000    -3064.88858874872449

Performing  Pulay mixing of Hamiltonian with coefficients:
                        Spin 1               Spin 2
                1.000000000000       1.000000000000
Lambda-->      33.065431835247      33.065431835102     ... done

.    Trial1    0.381966    -3061.31080378352817

Performing  Pulay mixing of Hamiltonian with coefficients:
                        Spin 1               Spin 2
                1.000000000000       1.000000000000
Lambda-->      33.065431835247      33.065431835102     ... done

.    Trial2    0.145898    -3065.62730347454954

Performing  Pulay mixing of Hamiltonian with coefficients:
                        Spin 1               Spin 2
                1.000000000000       1.000000000000
Lambda-->      33.065431835247      33.065431835102     ... done

. Quadratic    0.114365    -3065.66598401033934    -3065.68808327641091

--------------------------------------------------------------------------------
  Iter                              Commutator    Free_energy(A=E-TS)     DeltaA
#    1                          0.000942422067   -3065.66598401033934  -7.77E-01

Step                       =       0.114365041495
Energy (E)                 =   -3065.636691994919
Entropy (-TS)              =      -0.029292015575
Free energy (A=E-TS)       =   -3065.665984010339
Est. 0K Energy 0.5*(E+A)   =   -3065.651338002629
Residual Non-orthogonality =       0.000000000000
Residual N_electrons       =       0.000000000155

Spin          Integrated_Ne            Fermi_level     Delta_Fermi_level
   1      1070.000000000343        -0.224776921245              9.86E-03
   2      1070.000000000346        -0.224776921251              9.86E-03

                           Spin 1           |                 Spin 2           |
     Orb |    H-eigenvalues     Occupancies |    H-eigenvalues     Occupancies |
[...]
 H   294 -- Li  598       -0.01      0.00      5.62874
 C   152 -- Li  624       -0.06      0.00      5.63908
 C   401 -- Li  601       -0.04     -0.00      5.63936
 H   276 -- Li  593       -0.02      0.00      5.64527
 H   317 -- Li  615       -0.02     -0.00      5.64848
 C    93 -- H   277       -0.02      0.00      5.65073
 C   290 -- Li  623       -0.04     -0.00      5.65174
 H   479 -- Li  614       -0.02     -0.00      5.65661
 H   314 -- Li  594       -0.01     -0.00      5.65765
 C   340 -- Li  619       -0.06     -0.00      5.65870
 H   315 -- Li  603        0.01      0.00      5.66092
=============================================================


============== Orbital energy and occupancy information for spin 1 =============

      Total number of orbitals:    2204
        Occupancy sum (kernel):    1070.000000019
   Occupancy sum (eigenvalues):    1070.000000019
                 HOMO-LUMO gap:       0.003034753 Eh
                 Mid-gap level:      -0.085528692 Eh

                        Orbital | Energy (Eh) | Occupancy
                            1    -1.861197565   1.0000000
                        .......   ...........   .........
                         1062    -0.108796934   0.9989991
                         1063    -0.103957265   0.9955177
                         1064    -0.103041738   0.9941047
                         1065    -0.101069636   0.9890559
                         1066    -0.095517432   0.9393642
                         1067    -0.092470567   0.8485224
                         1068    -0.091233648   0.7937285
                         1069    -0.089187163   0.6650290
                         1070    -0.088437311   0.6135130
                         1071    -0.087046068   0.4986313
                        ....... -- gap at 0K -- .........
                         1072    -0.084011315   0.2689183
                         1073    -0.082096546   0.1684755
                         1074    -0.079395218   0.0752054
                         1075    -0.078350470   0.0506559
                         1076    -0.076886814   0.0367470
                         1077    -0.074792213   0.0183628
                         1078    -0.073747938   0.0132562
                         1079    -0.072877388   0.0098330
                         1080    -0.071618420   0.0067398
                         1081    -0.070380583   0.0045538
                        .......   ...........   .........
                         2204     0.774526628   0.0000000

================================================================================

============== Orbital energy and occupancy information for spin 2 =============

      Total number of orbitals:    2204
        Occupancy sum (kernel):    1069.999999981
   Occupancy sum (eigenvalues):    1069.999999981
                 HOMO-LUMO gap:       0.001391244 Eh
                 Mid-gap level:      -0.087741689 Eh

                        Orbital | Energy (Eh) | Occupancy
                            1    -1.861197565   1.0000000
                        .......   ...........   .........
                         1061    -0.110579147   0.9994232
                         1062    -0.108796934   0.9989991
                         1063    -0.103957265   0.9955177
                         1064    -0.103041738   0.9941047
                         1065    -0.101069636   0.9890559
                         1066    -0.095517432   0.9393642
                         1067    -0.092470567   0.8485224
                         1068    -0.091233648   0.7937285
                         1069    -0.089187163   0.6650290
                         1070    -0.088437311   0.6135130
                        ....... -- gap at 0K -- .........
                         1071    -0.087046067   0.4986313
                         1072    -0.084011315   0.2689183
                         1073    -0.082096545   0.1684755
                         1074    -0.079395218   0.0752054
                         1075    -0.078350469   0.0506559
                         1076    -0.076886815   0.0367470
                         1077    -0.074792213   0.0183628
                         1078    -0.073747938   0.0132562
                         1079    -0.072877388   0.0098330
                         1080    -0.071618420   0.0067398
                        .......   ...........   .........
                         2204     0.774526628   0.0000000

================================================================================

===================== Writing canonical molecular orbitals =====================
    Spin 1
| Orbital  Energy (eV)  Norm     |
| HOMO     -2.36864404  1.000000 | Writing "32/592nano_HOMO_UP.cube" ... done
Writing "32/592nano_HOMO_UP.dx" ... done
| LUMO     -2.28606421  1.000000 | Writing "32/592nano_LUMO_UP.cube" ... done
Writing "32/592nano_LUMO_UP.dx" ... done
================================================================================

===================== Writing canonical molecular orbitals =====================
    Spin 2
| Orbital  Energy (eV)  Norm     |
| HOMO     -2.40650168  1.000000 | Writing "32/592nano_HOMO_DN.cube" ... done
Writing "32/592nano_HOMO_DN.dx" ... done
| LUMO     -2.36864401  1.000000 | Writing "32/592nano_LUMO_DN.cube" ... done
Writing "32/592nano_LUMO_DN.dx" ... done
================================================================================

================== Local Density of States (LDOS) calculation ==================
Writing "32/592nano_UP_LDOS.txt" ...  done
================================================================================

================== Local Density of States (LDOS) calculation ==================
Writing "32/592nano_DN_LDOS.txt" ...  done
================================================================================
 
=============== Density of States (DOS) calculation for UP spin ================
Writing "32/592nano_UP_DOS.txt" ...  done
================================================================================
 
============== Density of States (DOS) calculation for DOWN spin ===============
Writing "32/592nano_DN_DOS.txt" ...  done
================================================================================
 
Writing bands to file "32/592nano.val_bands" ... done
 
================ Projected Density of States (pDOS) calculation ================
 
Constructing AM resolved functions  ...... done
Writing NGWF plot files in formats: CUBE DX ...  done
 
Performing overlap integrals ...  done
 
Computing pDOS weights ...  done
 
All bands spilling parameter =   2.98 %
Occupancy-weighted spilling parameter =   0.83 %
 
 => Outputting data for OptaDOS <=
 
Writing pDOS weights to file "32/592nano.val_pdos_bin" ... done
 
Writing band gradients to file "32/592nano.val_dome_bin" ... done
 
Writing Castep output cell file to "32/592nano-out.cell" ... done
 
 => Computing Gaussian smeared pDOS for UP spin<= 
Writing "32/592nano_UP_PDOS.txt" ...  done
 
 => Computing Gaussian smeared pDOS for DOWN spin<= 
Writing "32/592nano_DN_PDOS.txt" ...  done
 
 => Computing Occupancy-weighted Gaussian smeared pDOS for UP spin<= 
Writing "32/592nano_occ_UP_PDOS.txt" ...  done
  => Band centres for UP spin channel: 
 S band centre of group 1:  -17.627957 eV
 P band centre of group 1:   -8.025787 eV
  Band centres for UP spin channel done. <= 
  => Integrated number of electrons in each AM band for UP spin channel: 
 S num electrons of group 1:  298.687262
 P num electrons of group 1:  762.474357
  Integrated number of electrons for UP spin channel done. <= 
 
 => Computing Occupancy-weighted Gaussian smeared pDOS for DOWN spin<= 
Writing "32/592nano_occ_DN_PDOS.txt" ...  done
  => Band centres for DOWN spin channel: 
 S band centre of group 1:  -17.627957 eV
 P band centre of group 1:   -8.025787 eV
  Band centres for DOWN spin channel done. <=
  => Integrated number of electrons in each AM band for DOWN spin channel: 
 S num electrons of group 1:  298.687262
 P num electrons of group 1:  762.474357
  Integrated number of electrons for DOWN spin channel done. <=
================================================================================

------------------------------ TIMING INFORMATION ------------------------------
AVERAGE TIME:    7921.592s on    160 proc(s)                                    
TOTAL TIME:      7921.632s on    160 proc(s)                                    
================= AVERAGE TIMINGS FROM ALL PROCS (CUMULATIVE) ==================
|| TAG                                    #calls    cpu time   %total  Gflops ||
|| work_imbalance                       :     1        0.00s   0.000%  ------ ||
|| sparse_set_to_garbage                :   237        0.01s   0.000%  ------ ||
|| paw_tcore_density                    :     1        0.01s   0.000%  ------ ||
|| paw_dij_hartree                      :   232        0.01s   0.000%  ------ ||
|| paw_sphere_density_on_grid           :     1        0.01s   0.000%  ------ ||
|| basis_extract_function_from_box      :   358        0.02s   0.000%  ------ ||
|| ngwfs_initialise_from_radial         :     2        0.03s   0.000%  ------ ||
|| ewald_calculate_energy               :     1        0.09s   0.001%  ------ ||
|| pseudo_make_structure_factor         :     1        0.24s   0.003%  ------ ||
|| paw_tcore_hartree_on_grid            :     1        0.35s   0.004%  ------ ||
|| paw_dataset_init                     :     3        0.46s   0.006%  ------ ||
|| density_init_guess_real              :     1        0.48s   0.006%  ------ ||
|| dense_normal_eigensolve              :     1        0.88s   0.011%  ------ ||
|| sparse_init                          :     1        1.06s   0.013%  ------ ||
|| restart_kernel_write                 :    14        1.49s   0.019%  ------ ||
|| paw_species_calc_proj_prec_mat       :     1        1.55s   0.020%  ------ ||
|| augmentation_screen_dij              :   165        2.16s   0.027%  ------ ||
|| sw_init                              :     1        5.02s   0.063%  ------ ||
|| paw_dij_xc                           :   232        5.82s   0.073%  ------ ||
|| sparse_embed_hotelling_invert_embed  :    27        6.19s   0.078%  ------ ||
|| basis_copy_function_to_box           :  6832        6.76s   0.085%  ------ ||
|| ngwf_gradient_coeffs                 :    13        7.69s   0.097%  ------ ||
|| hartree_on_grid                      :   160       10.84s   0.137%  ------ ||
|| aug_nonlocal_mat                     :   219       13.18s   0.166%  ------ ||
|| fourier_apply_box_pair               :   909       13.36s   0.169%  1.799k ||
|| projectors_init_fftbox_recip         :    55       13.93s   0.176%  ------ ||
|| augmentation_density_on_grid         :   160       23.96s   0.302%  ------ ||
|| sparse_trace                         :  7002       24.67s   0.311%  ------ ||
|| basis_dot_function_with_box          : 1.866M      35.95s   0.454%  ------ ||
|| projectors_func_ovlp_box             :    28       52.44s   0.662%  ------ ||
|| integrals_kinetic                    :    27       59.90s   0.756%  ------ ||
|| eigenstates_pdos                     :     1       67.64s   0.854%  ------ ||
|| function_ops_brappd_ketppd           :    56      102.98s   1.300%  ------ ||
|| hamiltonian_energy_components        :     3      111.44s   1.407%  ------ ||
|| dense_eigensolve                     :   256      117.42s   1.482%  ------ ||
|| eigenstates_calculate                :     1      133.34s   1.683%  ------ ||
|| basis_add_function_to_box            : 4.881M     136.03s   1.717%  ------ ||
|| fourier_apply_cell_forward           :  5884      151.61s   1.914% 135.081 ||
|| sparse_product                       : 10010      198.42s   2.505%  ------ ||
|| restart_ngwfs_tightbox_output        :    12      204.88s   2.586%  ------ ||
|| fourier_apply_cell_backward          :  6521      225.21s   2.843% 100.783 ||
|| cell_grid_deposit_box_real           : 10324      252.97s   3.193%  ------ ||
|| integrals_locpot_mat_els_batch       :   133      305.25s   3.853%  ------ ||
|| density_batch_row_sums               :   160      342.12s   4.319%  ------ ||
|| edft_diag_ngwf_ham                   :   254      375.81s   4.744%  ------ ||
|| cell_grid_extract_box_real           :  3884      392.09s   4.950%  ------ ||
|| projectors_gradient_batch            :    13      406.35s   5.130%  ------ ||
|| xc_energy_potential                  :   159      424.75s   5.362%  ------ ||
|| density_fftbox_interpolate_multiply  :  5120      429.36s   5.420%  ------ ||
|| fourier_apply_box                    : 23105      460.52s   5.813%  4.256k ||
|| nlxc_vdw_energy                      :   318      570.09s   7.197%  ------ ||
|| edft_apply_smearing_operator         :   127      583.03s   7.360%  ------ ||
|| density_fftbox_deposit_to_cell       :  5120      610.47s   7.706%  ------ ||
|| potential_apply_to_ngwf_batch        :   133      696.90s   8.797%  ------ ||
|| properties_calculate                 :     1      925.71s  11.686%  ------ ||
|| integrals_locpot_dbl_grid            :   133     1007.71s  12.721%  ------ ||
|| projectors_grad_precond_batch        :    13     1075.67s  13.579%  ------ ||
|| density_batch_interp_deposit         :   160     1262.01s  15.931%  ------ ||
|| density_on_dbl_grid                  :   160     1621.13s  20.465%  ------ ||
|| ngwf_gradient_build_batch            :    13     1665.08s  21.020%  ------ ||
|| ngwf_gradient_batch                  :    13     1803.95s  22.773%  ------ ||
|| ngwf_gradient_lnv                    :    13     1817.50s  22.944%  ------ ||
|| hamiltonian_lhxc_calculate           :   155     2149.76s  27.138%  ------ ||
|| edft_calculate                       :    13     3649.90s  46.075%  ------ ||
|| ngwf_cg_optimise                     :     1     6964.78s  87.921%  ------ ||
|| total_time                           :     1     7921.59s 100.000%  ------ ||
================================================================================
==================== AVERAGE TIMINGS FROM ALL PROCS (SELF) =====================
++ TAG                                    #calls    cpu time   %total  Gflops ++
++ nlxc_vdw_energy                      :   318       -5.13s  -0.065%  ------ ++
++ work_imbalance                       :     1        0.00s   0.000%  ------ ++
++ paw_tcore_density                    :     1        0.01s   0.000%  ------ ++
++ paw_sphere_density_on_grid           :     1        0.01s   0.000%  ------ ++
++ sparse_set_to_garbage                :   237        0.01s   0.000%  ------ ++
++ paw_dij_hartree                      :   232        0.01s   0.000%  ------ ++
++ paw_tcore_hartree_on_grid            :     1        0.01s   0.000%  ------ ++
++ basis_extract_function_from_box      :   358        0.02s   0.000%  ------ ++
++ ngwfs_initialise_from_radial         :     2        0.03s   0.000%  ------ ++
++ ewald_calculate_energy               :     1        0.09s   0.001%  ------ ++
++ ngwf_gradient_coeffs                 :    13        0.10s   0.001%  ------ ++
++ pseudo_make_structure_factor         :     1        0.24s   0.003%  ------ ++
++ sparse_embed_hotelling_invert_embed  :    27        0.37s   0.005%  ------ ++
++ density_init_guess_real              :     1        0.38s   0.005%  ------ ++
++ paw_dataset_init                     :     3        0.46s   0.006%  ------ ++
++ hartree_on_grid                      :   160        0.65s   0.008%  ------ ++
++ aug_nonlocal_mat                     :   219        0.83s   0.010%  ------ ++
++ dense_normal_eigensolve              :     1        0.88s   0.011%  ------ ++
++ sparse_init                          :     1        1.06s   0.013%  ------ ++
++ paw_species_calc_proj_prec_mat       :     1        1.30s   0.016%  ------ ++
++ restart_kernel_write                 :    14        1.49s   0.019%  ------ ++
++ augmentation_screen_dij              :   165        1.67s   0.021%  ------ ++
++ main_program_(onetep.F90)            :     1        2.64s   0.033%  ------ ++
++ hamiltonian_energy_components        :     3        2.90s   0.037%  ------ ++
++ augmentation_density_on_grid         :   160        4.86s   0.061%  ------ ++
++ sw_init                              :     1        5.02s   0.063%  ------ ++
++ integrals_locpot_dbl_grid            :   133        5.56s   0.070%  ------ ++
++ paw_dij_xc                           :   232        5.82s   0.073%  ------ ++
++ ngwf_gradient_lnv                    :    13        5.87s   0.074%  ------ ++
++ basis_copy_function_to_box           :  6832        6.76s   0.085%  ------ ++
++ fourier_apply_box_pair               :   909       13.36s   0.169%  1.799k ++
++ projectors_init_fftbox_recip         :    55       13.93s   0.176%  ------ ++
++ density_on_dbl_grid                  :   160       17.00s   0.215%  ------ ++
++ sparse_trace                         :  7002       24.67s   0.311%  ------ ++
++ projectors_func_ovlp_box             :    28       32.73s   0.413%  ------ ++
++ basis_dot_function_with_box          : 1.866M      35.95s   0.454%  ------ ++ (!) overhead: ~   5.6%
++ edft_calculate                       :    13       43.00s   0.543%  ------ ++
++ eigenstates_calculate                :     1       48.50s   0.612%  ------ ++
++ integrals_kinetic                    :    27       51.17s   0.646%  ------ ++
++ eigenstates_pdos                     :     1       54.44s   0.687%  ------ ++
++ xc_energy_potential                  :   159       63.58s   0.803%  ------ ++
++ ngwf_gradient_batch                  :    13       85.41s   1.078%  ------ ++
++ ngwf_gradient_build_batch            :    13       89.43s   1.129%  ------ ++
++ function_ops_brappd_ketppd           :    56      102.98s   1.300%  ------ ++
++ dense_eigensolve                     :   256      117.42s   1.482%  ------ ++
++ hamiltonian_lhxc_calculate           :   155      130.18s   1.643%  ------ ++
++ basis_add_function_to_box            : 4.881M     136.03s   1.717%  ------ ++ (!) overhead: ~   3.9%
++ fourier_apply_cell_forward           :  5884      151.61s   1.914% 135.081 ++
++ density_fftbox_interpolate_multiply  :  5120      161.51s   2.039%  ------ ++
++ density_batch_interp_deposit         :   160      171.07s   2.160%  ------ ++
++ edft_apply_smearing_operator         :   127      193.37s   2.441%  ------ ++
++ sparse_product                       : 10010      198.42s   2.505%  ------ ++
++ restart_ngwfs_tightbox_output        :    12      204.87s   2.586%  ------ ++
++ fourier_apply_cell_backward          :  6521      225.21s   2.843% 100.783 ++
++ cell_grid_deposit_box_real           : 10324      252.97s   3.193%  ------ ++
++ edft_diag_ngwf_ham                   :   254      259.47s   3.276%  ------ ++
++ density_batch_row_sums               :   160      260.37s   3.287%  ------ ++
++ integrals_locpot_mat_els_batch       :   133      276.76s   3.494%  ------ ++
++ density_fftbox_deposit_to_cell       :  5120      358.64s   4.527%  ------ ++
++ cell_grid_extract_box_real           :  3884      392.09s   4.950%  ------ ++
++ projectors_gradient_batch            :    13      396.03s   4.999%  ------ ++
++ potential_apply_to_ngwf_batch        :   133      432.23s   5.456%  ------ ++
++ fourier_apply_box                    : 23105      460.52s   5.813%  4.256k ++
++ properties_calculate                 :     1      529.96s   6.690%  ------ ++
++ ngwf_cg_optimise                     :     1      769.80s   9.718%  ------ ++
++ projectors_grad_precond_batch        :    13     1061.83s  13.404%  ------ ++
================================================================================
(!) WARNING: You're wasting precious cycles calling timer. 
             Each pair of timer_clock calls itself cost   1.08 microseconds!
Overhead of generating timer report: 
- 0 ms averaging over threads,
- 19 ms ensuring consistency across MPI ranks,
- 0 ms printing in order.

Job completed: 27-11-2021 20:50 (-0000)

