 +---------------------------------------------------------------+
 |                                                               |
 |        ####### #     # ####### ####### ####### ######         |
 |        #     # ##    # #          #    #       #     #        |
 |        #     # # #   # #          #    #       #     #        |
 |        #     # #  #  # #####      #    #####   ######         |
 |        #     # #   # # #          #    #       #              |
 |        #     # #    ## #          #    #       #              |
 |        ####### #     # #######    #    ####### #              |
 |                                                               |
 |        Linear-Scaling Ab Initio Total Energy Program          |
 |                                                               |
 |          Release for academic collaborators of ODG            |
 |                                             Version 6.1.3.6   |
 |                                                               |
 +---------------------------------------------------------------+
 |                                                               |
 |  Authors:                                                     |
 |  Jacek Dziedzic, Peter D. Haynes, Nicholas D. M. Hine,        |
 |  Arash A. Mostofi, Mike C. Payne and Chris-Kriton Skylaris    |
 |                                                               |
 |  Contributors:                                                |
 |  J. Aarons, L. Andrinopoulos, P. W. Avraam, R. A. Bell,       |
 |  A. Bhandari, G. A. Bramley, R. J. Charlton, S. J. Clark,     |
 |  R. J. Clements, G. C. Constantinescu, F. Corsetti,           |
 |  N. Corsini, O. Dieguez, S. M. M. Dubois, K. K. B. Duff,      |
 |  J. M. Escartin, A. Greco, H. Helal, Q. O. Hill, L. P. Lee,   |
 |  J.-H. Li, E. B. Linscott, G. Moynihan, D. D. O`Regan,        |
 |  O. K. Okan, M. J. S. Phipps, C. J. Pickard,                  |
 |  J. C. A. Prentice, M. I. J. Probert, L. E. Ratcliff,         |
 |  M. Robinson, A. Ruiz Serrano, J. S. Spencer, E. W. Tait,     |
 |  G. Teobaldi, D. Turban, V. Vitale, K. A. Wilkinson,          |
 |  C. Weber, J. C. Womack, N. Yeung and T. J. Zuehlsdorff       |
 |                                                               |
 |                                   Copyright (c) 2004-2021     |
 |                                                               |
 |  Please cite:                                                 |
 |  "The ONETEP linear-scaling density functional theory program"|
 |   J. Chem. Phys. 152(17) 174111 (2020)                        |
 |                                                               |
 |          in all publications arising from your use of ONETEP. |
 |                                                               |
 +---------------------------------------------------------------+
 |                                                               |
 |   ONETEP is based on developments described in the following  |
 |   publications:                                               |
 |                                                               |
 |  "Nonorthogonal generalized Wannier function pseudopotential  |
 |   plane-wave method".                                         |
 |   C.-K. Skylaris, A. A. Mostofi, P. D. Haynes, O. Dieguez,    |
 |   M. C. Payne.                                                |
 |   Phys. Rev. B 66 035119 (2002).                              |
 |                                                               |
 |  "Preconditioned iterative minimization for linear-scaling    |
 |   electronic structure calculations".                         |
 |   A. A. Mostofi, P. D. Haynes, C.-K. Skylaris, M. C. Payne.   |
 |   J. Chem. Phys. 119(17), pp.8842-8848 (2003).                |
 |                                                               |
 |  "Total-energy calculations on a real space grid with         |
 |   localized functions and a plane-wave basis".                |
 |   A. A. Mostofi, C.-K. Skylaris, P. D. Haynes, M. C. Payne.   |
 |   Comput. Phys. Commun. 147, pp.788-802 (2002).               |
 |                                                               |
 |  "Accurate kinetic energy evaluation in electronic structure  |
 |   calculations with localized functions on real space grids"  |
 |   C.-K. Skylaris, A. A. Mostofi, P. D. Haynes, C. J. Pickard, |
 |   M. C. Payne.                                                |
 |   Comput. Phys. Commun. 140, pp.315-322 (2001).               |
 |                                                               |
 |  "Accurate ionic forces and geometry optimization in linear-  |
 |   scaling density-functional theory with local orbitals"      |
 |   N. D. M. Hine, M. Robinson, P. D. Haynes, C.-K. Skylaris,   |
 |   M. C. Payne, and A. A. Mostofi.                             |
 |   Phys. Rev. B 83 195102 (2011).                              |
 |                                                               |
 +---------------------------------------------------------------+

Job started: 20-12-2021 22:37 (-0000)
 
Reading parameters from file "592nano.dat" ...... done

If your calculation crashes here, before "Checking processes and threads..."
is displayed, then your stack size is insufficient.
If so, use "ulimit -s unlimited" at runtime.
You can disable this check with "check_stack_size F".

Checking processes and threads...
   Determining the default number of threads...
      No default threads set at compilation time: defaulting to 1.
      OpenMP library call suggests 4 threads.
      Hybrid MPI-OpenMP compilation detected.
      Number of MPI processes > 1.
      OMP_NUM_THREADS environment variable present and
      its value matches the one obtained from the OpenMP library call.
      Using this value as default.
      Default threads: 4
      Default applies to threads_max and threads_num_fftboxes.
      Settings in the input file override this default.
   ... done

   Running with 40 MPI processes.
   There are 10 MPI processes running on the same node as the root process.
   Each MPI process is using: 
               1 threads for simulation cell FFTs.
               1 threads for parallel FFT box operations.
               4 threads for loops over batched FFT box operations.
               4 threads in other parallel regions.
... done

Basic input checks...
Resetting ngwf_cg_rotate to TRUE for EDFT calculations
... done

Reading geometry and species blocks from file "592nano.dat" ...    
  Number of PPD points along a3 set to 1.  This is 
  the default value, it may have been provided also in the input file.
... done


--------------------------------------------------------------------------------
---------------------------------- INPUT FILE ----------------------------------
--------------------------------------------------------------------------------

task : geometryoptimization                                                     
do_properties : true                                                            
dx_format T                                                                     
edft T                                                                          
edft_spin_fix 3                                                                 
output_detail VERBOSE                                                           
timings_level 3                                                                 
write_xyz T                                                                     
edft_update_scheme: pulay_mix                                                   
edft_ham_diis_size: 10                                                          
edft_trial_step: 0.1                                                            
xc_functional OPTPBE                                                            
cutoff_energy 830 eV                                                            
paw T                                                                           
geom_continuation T                                                             
geom_disp_tol 0.06 bohr                                                         
geom_energy_tol 6E-6 hartree                                                    
geom_force_tol 0.012 "ha/bohr"                                                  
geom_max_iter 25                                                                
read_denskern T                                                                 
read_tightbox_ngwfs T                                                           
EDFT_MAXIT 30                                                                   
pdos_max_l = 2                                                                  
dos_smear  0.1 eV                                                               
popn_calculate T                                                                
PDOS_PSEUDOATOMIC T                                                             
PDOS_REDUCE_SWS F                                                               
PDOS_CONSTRUCT_BASIS F                                                          
PDOS_LOWDIN T                                                                   
PDOS_ORTH_ATOM_BLOCKS F                                                         
PDOS_LCAO_OPTIMIZE F                                                            
pdos_optados_output T                                                           
homo_plot 0                                                                     
lumo_plot 0                                                                     
homo_dens_plot -1                                                               
lumo_dens_plot -1                                                               
%BLOCK SPECIES                                                                  
C C 6 4 9.0                                                                     
H H 1 1 9.0                                                                     
Li Li 3 5 9.0                                                                   
%ENDBLOCK SPECIES                                                               
%BLOCK SPECIES_POT                                                              
C "~/pp/paw/c_pbe_abinit.paw"                                                   
H "~/pp/paw/h_pbe_abinit.paw"                                                   
Li "~/pp/paw/li_pbe_abinit.paw"                                                 
%ENDBLOCK SPECIES_POT                                                           
%BLOCK SPECIES_ATOMIC_SET                                                       
C "SOLVE conf=2s2 2p2"                                                          
H "SOLVE conf=1s1"                                                              
Li "SOLVE conf=1s2 2s1 2p0"                                                     
%ENDBLOCK SPECIES_ATOMIC_SET                                                    
%BLOCK SPECIES_LDOS_GROUPS                                                      
C                                                                               
H                                                                               
Li                                                                              
%ENDBLOCK SPECIES_LDOS_GROUPS                                                   
%BLOCK LATTICE_CART                                                             
94.486315650000      0.000000000000       0.000000000000                        
0.000000000000       94.486315650000      0.000000000000                        
0.000000000000       0.000000000000       94.486315650000                       
%ENDBLOCK LATTICE_CART                                                          
%BLOCK POSITIONS_ABS                                                            
C 43.018521 41.243462 31.890592                                                 
C 38.935378 43.499419 31.817918                                                 
C 41.714370 38.879566 31.794158                                                 
C 45.707128 41.296333 31.942738                                                 
C 37.633943 41.135975 31.672571                                                 
C 37.544139 45.803684 31.853053                                                 
C 54.987778 48.474179 31.916220                                                 
C 54.902922 53.136647 31.923261                                                 
C 53.688783 46.120421 31.919208                                                 
C 38.657817 57.484095 31.909129                                                 
C 42.655384 59.897420 31.866904                                                 
C 37.356205 55.132109 31.957198                                                 
C 53.517325 55.442339 31.909398                                                 
C 45.345442 59.955674 31.874060                                                 
C 47.100064 38.982469 31.906628                                                 
C 41.627255 43.551814 31.913899                                                 
C 34.844629 45.749505 31.750437                                                 
C 51.090049 41.395080 31.906669                                                 
C 53.602656 50.782000 31.989876                                                 
C 34.747226 50.412090 31.919571                                                 
C 41.352151 57.543121 31.962927                                                 
C 39.025872 38.830451 31.668703                                                 
C 55.076345 43.808197 31.796179                                                 
C 49.698710 43.709531 31.978309                                                 
C 37.450082 50.468760 31.982656                                                 
C 49.434488 57.701921 31.931533                                                 
C 34.655496 55.074542 31.885997                                                 
C 57.683443 48.527008 31.802828                                                 
C 50.736281 60.063918 31.770217                                                 
C 57.600105 53.183796 31.817193                                                 
C 37.258875 59.791239 31.755818                                                 
C 54.818712 57.801795 31.743738                                                 
C 50.822312 55.395766 31.986383                                                 
C 46.740955 57.649159 31.972395                                                 
C 41.253060 62.204791 31.710282                                                 
C 46.651702 62.317539 31.719560                                                 
C 47.008812 43.655536 31.992430                                                 
C 50.997163 46.065584 31.994834                                                 
C 38.842809 48.163553 31.964759                                                 
C 38.750572 52.824435 32.018968                                                 
C 49.788472 39.038910 31.898569                                                 
C 33.451524 48.052998 31.817902                                                 
C 43.110584 36.573039 31.781364                                                 
C 53.778258 41.453490 31.811851                                                 
C 34.942037 41.090299 31.511865                                                 
C 33.356086 52.719157 31.902612                                                 
C 45.791370 36.625807 31.849857                                                 
C 33.554203 43.386451 31.563940                                                 
C 58.983544 50.879325 31.773226                                                 
C 53.431707 60.103826 31.667911                                                 
C 49.340938 62.366879 31.666121                                                 
C 38.562769 62.143205 31.648560                                                 
C 50.910102 50.731264 32.051129                                                 
C 42.747088 55.237851 32.045763                                                 
C 42.927627 45.910314 31.996550                                                 
C 57.766954 43.872302 31.645603                                                 
C 59.062945 46.217059 31.651812                                                 
C 33.266417 57.383717 31.750002                                                 
C 34.563784 59.727014 31.660868                                                 
C 58.896928 55.541295 31.673552                                                 
C 49.522783 53.038795 32.064102                                                 
C 45.439847 55.293817 32.056371                                                 
C 57.515582 57.835339 31.617579                                                 
C 49.609855 48.375572 32.055564                                                 
C 41.445657 52.881742 32.063513                                                 
C 42.562646 64.559228 31.560919                                                 
C 41.536880 48.218445 32.022902                                                 
C 45.619163 45.964889 32.031020                                                 
C 45.244655 64.616299 31.569504                                                 
C 37.713103 36.450574 31.532001                                                 
C 46.830483 52.985763 32.085908                                                 
C 42.837898 50.575304 32.071217                                                 
C 46.919013 48.322796 32.068419                                                 
C 41.779272 34.198059 31.685804                                                 
C 33.645749 38.700292 31.330234                                                 
C 51.196621 36.707580 31.844402                                                 
C 55.177928 39.117710 31.704454                                                 
C 30.725486 47.999011 31.747607                                                 
C 47.211055 34.300770 31.823039                                                 
C 30.630393 52.658332 31.842885                                                 
C 30.830606 43.348045 31.440690                                                 
C 45.530518 50.630542 32.091514                                                 
C 61.699099 50.930155 31.650484                                                 
C 39.143571 34.184283 31.565349                                                 
C 35.039709 36.454935 31.353645                                                 
C 37.153726 64.464623 31.457295                                                 
C 59.151529 41.532518 31.473664                                                 
C 54.740968 62.486874 31.450951                                                 
C 50.658750 64.746513 31.464205                                                 
C 61.780503 46.288187 31.508156                                                 
C 30.542111 57.310362 31.670829                                                 
C 61.615336 55.572385 31.555100                                                 
C 33.170924 62.061326 31.474052                                                 
C 41.133702 66.872193 31.375755                                                 
C 58.813407 60.219371 31.398892                                                 
C 46.572107 66.987189 31.386210                                                 
C 49.842903 34.384650 31.849594                                                 
C 29.488873 45.613957 31.578514                                                 
C 63.030054 48.611638 31.536923                                                 
C 53.856528 36.808382 31.770773                                                 
C 62.948235 53.294039 31.574719                                                 
C 57.858022 39.239752 31.535894                                                 
C 29.385316 50.302160 31.817218                                                 
C 43.246228 31.902181 31.697268                                                 
C 34.475918 64.352004 31.385462                                                 
C 38.494794 66.780160 31.340713                                                 
C 29.294398 54.994094 31.764583                                                 
C 30.924449 38.718560 31.155413                                                 
C 45.826897 31.951016 31.769539                                                 
C 29.587641 40.928920 31.216704                                                 
C 57.431126 62.461078 31.335285                                                 
C 53.326644 64.742454 31.373909                                                 
C 49.210395 67.010079 31.357950                                                 
H 38.135291 32.359982 31.487970                                                 
H 34.035486 34.630561 31.239565                                                 
C 63.119179 43.924342 31.313439                                                 
C 61.867804 41.665296 31.292020                                                 
C 62.871269 57.980786 31.372017                                                 
C 29.199013 59.679204 31.495346                                                 
C 30.447811 61.935036 31.393438                                                 
C 61.536930 60.190486 31.286467                                                 
C 42.509858 69.221186 31.229569                                                 
C 45.093709 69.273586 31.235807                                                 
H 65.030344 53.332009 31.484289                                                 
H 65.112604 48.650537 31.435927                                                 
H 50.917743 32.598662 31.854925                                                 
H 42.225700 30.085986 31.656750                                                 
H 29.938999 36.888067 30.998216                                                 
H 27.404144 45.566121 31.533766                                                 
H 37.417863 68.561791 31.198069                                                 
H 33.398850 66.132028 31.250011                                                 
H 58.933676 37.455097 31.448262                                                 
H 27.209623 54.953224 31.737379                                                 
H 46.913079 30.174565 31.791716                                                 
H 54.932074 35.022702 31.739389                                                 
H 27.505201 40.906797 31.115609                                                 
H 27.300247 50.256313 31.799966                                                 
H 58.434538 64.285281 31.194722                                                 
H 50.215848 68.832985 31.240946                                                 
H 65.199304 43.980662 31.188485                                                 
H 62.926043 39.875782 31.154750                                                 
H 54.332559 66.567308 31.244466                                                 
H 64.953797 58.002724 31.293059                                                 
H 29.384942 63.721273 31.254000                                                 
H 27.117111 59.622750 31.443126                                                 
H 41.422495 70.994482 31.101592                                                 
H 62.521597 62.020970 31.147148                                                 
H 46.113361 71.086660 31.129934                                                 
C 44.393272 38.895308 37.716076                                                 
C 36.225085 43.392909 37.535790                                                 
C 40.307402 41.144083 37.651472                                                 
C 41.707436 38.842356 37.651564                                                 
C 49.778531 39.001474 37.781260                                                 
C 37.620387 41.090870 37.528294                                                 
C 48.382728 41.312413 37.786953                                                 
C 53.757835 41.413275 37.702795                                                 
C 45.691345 41.260197 37.764051                                                 
C 52.371142 43.726266 37.765363                                                 
C 36.113886 48.070577 37.740431                                                 
C 37.512491 45.762425 37.691936                                                 
C 45.797239 36.592042 37.723283                                                 
C 35.987803 52.736077 37.837350                                                 
C 33.409749 48.001661 37.725435                                                 
C 53.667373 46.083906 37.759871                                                 
C 52.469893 39.057225 37.752437                                                 
C 33.280566 52.694079 37.844412                                                 
C 56.366076 46.147540 37.648708                                                 
C 33.528460 43.347100 37.356708                                                 
C 49.677483 43.670392 37.804636                                                 
C 37.285623 55.088070 37.835188                                                 
C 48.476995 36.643337 37.770110                                                 
C 41.603125 43.510938 37.732512                                                 
C 37.402191 50.432117 37.821567                                                 
C 35.872766 57.393408 37.726074                                                 
C 56.455064 41.476774 37.512579                                                 
C 56.279337 50.797798 37.772243                                                 
C 53.576411 50.744189 37.824228                                                 
C 53.478459 55.400862 37.787713                                                 
C 31.995056 50.300663 37.816264                                                 
C 45.299127 59.915612 37.739247                                                 
C 41.287519 57.508414 37.847224                                                 
C 57.747082 43.835026 37.438428                                                 
C 32.121083 45.632537 37.539428                                                 
C 52.084599 57.717519 37.731400                                                 
C 44.294250 43.565221 37.774616                                                 
C 48.000596 59.995899 37.718177                                                 
C 40.204886 45.814983 37.756516                                                 
C 39.867110 59.813524 37.752275                                                 
C 49.379918 57.672943 37.751043                                                 
C 52.278535 48.390488 37.829002                                                 
C 57.667935 48.490651 37.683406                                                 
C 39.988053 55.151506 37.869891                                                 
C 56.184008 55.445154 37.700278                                                 
C 52.182598 53.051469 37.844896                                                 
C 43.985751 57.571753 37.829965                                                 
C 40.395920 36.456426 37.582327                                                 
C 31.867197 54.963515 37.763549                                                 
C 43.862939 62.208920 37.650974                                                 
C 36.321419 38.694666 37.386160                                                 
C 33.162360 57.303251 37.614307                                                 
C 37.160329 59.741281 37.674028                                                 
C 57.578724 53.150120 37.722225                                                 
C 41.174145 62.155976 37.621739                                                 
C 48.284142 45.979465 37.829331                                                 
C 40.100289 50.485239 37.839306                                                 
C 48.085872 55.315076 37.837230                                                 
C 44.474749 34.216865 37.674462                                                 
C 53.875403 36.724328 37.727276                                                 
C 53.373128 60.075971 37.547158                                                 
C 49.580132 48.336439 37.855179                                                 
C 49.298930 62.362833 37.540887                                                 
C 41.392403 52.842612 37.870541                                                 
C 45.386463 55.255033 37.854366                                                 
C 49.478506 53.003605 37.870346                                                 
C 45.589963 45.926099 37.817793                                                 
C 41.499214 48.178363 37.818734                                                 
C 32.252442 40.940627 37.031839                                                 
C 37.739728 36.442573 37.462250                                                 
C 49.897277 34.322583 37.784461                                                 
C 41.841052 34.195310 37.608293                                                 
C 57.479492 57.806701 37.484707                                                 
C 57.842780 39.124282 37.407493                                                 
C 33.651756 38.693741 37.121123                                                 
C 45.168585 64.583187 37.491175                                                 
C 44.091156 52.901491 37.875239                                                 
C 48.185534 50.647240 37.876763                                                 
C 29.265327 50.224303 37.827451                                                 
C 44.193973 48.233084 37.839274                                                 
C 60.397080 48.557773 37.589047                                                 
C 51.989077 62.386589 37.421654                                                 
C 45.489890 50.591799 37.869854                                                 
C 60.480916 43.924437 37.240211                                                 
C 29.392341 45.582860 37.529490                                                 
C 56.094141 60.113610 37.401730                                                 
C 56.546206 36.828674 37.583655                                                 
C 29.149046 54.870217 37.781747                                                 
C 47.858014 64.649378 37.459850                                                 
C 60.308673 53.201362 37.647747                                                 
C 52.538294 34.409898 37.784993                                                 
C 35.741385 62.067207 37.477821                                                 
C 31.754983 59.615839 37.315712                                                 
C 39.748307 64.479372 37.317688                                                 
C 45.943176 31.925759 37.694221                                                 
C 27.911832 52.529961 37.868116                                                 
C 61.730242 46.245477 37.377854                                                 
C 28.034999 47.840568 37.732667                                                 
C 61.642072 50.898749 37.630301                                                 
C 48.524514 31.972608 37.756754                                                 
C 29.513766 40.958368 36.966586                                                 
C 33.067635 61.940675 37.300229                                                 
C 60.561200 39.265760 37.154525                                                 
C 37.068181 64.381419 37.390014                                                 
C 60.213209 57.832100 37.356146                                                 
H 36.739989 34.616211 37.375398                                                 
H 40.837183 32.369104 37.561113                                                 
C 61.813179 41.546041 37.034367                                                 
C 43.735949 66.901297 37.294419                                                 
H 32.653995 36.869700 36.956032                                                 
C 61.554390 55.551918 37.511026                                                 
C 28.164831 43.159123 37.284535                                                 
C 41.066851 66.804696 37.242466                                                 
H 57.620942 35.043518 37.517679                                                 
C 27.790192 57.217925 37.636742                                                 
C 29.029169 59.480690 37.375341                                                 
H 53.612751 32.622393 37.771146                                                 
C 53.280768 64.778457 37.064611                                                 
H 44.915953 30.113714 37.651904                                                 
H 25.825304 52.477440 37.875470                                                 
C 57.374115 62.508988 37.108805                                                 
C 49.197193 67.011797 37.268029                                                 
H 63.810658 46.289710 37.273246                                                 
H 28.527289 39.139606 36.733172                                                 
H 25.948313 47.781193 37.735865                                                 
H 63.724506 50.941311 37.552570                                                 
H 49.613235 30.194331 37.765153                                                 
H 61.625116 37.479362 37.041416                                                 
H 31.987190 63.710160 37.061170                                                 
H 35.990795 66.138357 37.055219                                                 
H 63.885617 41.600034 36.866399                                                 
H 63.636062 55.598282 37.437275                                                 
H 26.081256 43.111662 37.287645                                                 
H 25.706240 57.161711 37.662572                                                 
C 61.445028 60.241745 37.112526                                                 
H 40.016586 68.566311 36.921056                                                 
C 45.114364 69.230605 37.148407                                                 
H 27.955519 61.256555 37.177562                                                 
C 51.858094 67.032054 37.134026                                                 
C 55.967047 64.773297 36.975881                                                 
C 60.093748 62.479449 37.014792                                                 
C 47.732602 69.284796 37.167260                                                 
H 63.524229 60.280976 37.035723                                                 
H 44.038845 71.011302 37.003243                                                 
H 52.851395 68.849213 36.900277                                                 
H 56.943717 66.577817 36.659459                                                 
H 61.080729 64.301608 36.814443                                                 
H 48.757515 71.091905 37.022372                                                 
H 29.347754 37.290227 44.263581                                                 
H 41.427997 30.134056 43.351198                                                 
H 33.378460 34.900588 43.725024                                                 
H 37.408449 32.524605 43.402262                                                 
H 46.126874 30.087978 43.458771                                                 
H 27.044950 41.393149 44.452602                                                 
C 42.504463 31.919483 43.390758                                                 
C 30.395038 39.088024 44.156330                                                 
H 62.414472 39.229860 44.509103                                                 
C 34.438710 36.696318 43.679189                                                 
C 38.470369 34.320736 43.414480                                                 
C 45.086223 31.891238 43.449775                                                 
H 50.185268 32.379142 43.589621                                                 
H 64.815227 43.225922 44.005513                                                 
C 29.119379 41.358946 44.279575                                                 
H 65.060534 57.266143 43.862052                                                 
H 27.076556 46.087561 44.091043                                                 
H 27.222317 60.091366 44.493462                                                 
H 54.254753 34.655727 43.813631                                                 
H 58.313562 36.931177 44.259772                                                 
H 29.601281 64.123834 44.813814                                                 
H 27.119323 50.752343 43.884511                                                 
H 64.990268 52.597316 43.567334                                                 
H 41.895116 71.028123 44.953719                                                 
H 62.767000 61.340479 44.477120                                                 
H 27.160973 55.418846 44.045901                                                 
H 64.914140 47.907163 43.627506                                                 
C 33.118137 38.979505 43.893543                                                 
C 41.112185 34.256736 43.404824                                                 
H 46.598585 70.965553 44.989895                                                 
C 37.111389 36.622745 43.516650                                                 
H 37.775073 68.741501 45.181284                                                 
C 61.412306 41.044226 44.320068                                                 
C 62.733589 43.261999 44.029584                                                 
H 33.680601 66.430641 44.939794                                                 
C 49.165547 34.196626 43.572193                                                 
C 62.980024 57.302279 43.916759                                                 
C 29.159758 46.068200 43.986759                                                 
H 58.740770 63.744161 44.808802                                                 
C 29.299082 60.081042 44.459733                                                 
C 46.534950 34.196098 43.506719                                                 
H 50.663991 68.567443 44.909684                                                 
H 54.686542 66.130423 45.157071                                                 
C 30.431997 43.752780 44.088458                                                 
C 30.625138 62.322156 44.626402                                                 
C 53.243458 36.476481 43.758032                                                 
C 61.714235 59.560764 44.252150                                                 
C 57.301991 38.749677 44.135285                                                 
C 42.915429 69.224283 44.775907                                                 
C 29.204406 50.737366 43.819668                                                 
C 62.900001 52.618400 43.595231                                                 
C 29.245510 55.402855 43.995413                                                 
C 62.824941 47.936547 43.657226                                                 
C 45.525799 69.185847 44.803597                                                 
C 50.589498 36.469176 43.636223                                                 
C 58.678076 41.004472 44.260046                                                 
C 38.748914 66.948226 44.818079                                                 
C 54.636817 38.738032 43.875039                                                 
C 30.474919 48.399757 43.825154                                                 
C 61.484031 45.673767 43.834375                                                 
C 34.704803 64.639072 44.669920                                                 
C 42.513899 36.590428 43.454588                                                 
C 61.648504 54.950011 43.739449                                                 
C 34.487693 41.348350 43.806474                                                 
C 30.567256 57.685761 44.199246                                                 
C 45.372884 50.571370 43.599674                                                 
C 30.518795 53.054300 43.843751                                                 
C 38.499704 38.969152 43.522113                                                 
C 61.571547 50.304999 43.611193                                                 
C 46.739264 52.892210 43.631184                                                 
C 57.682240 61.985551 44.456490                                                 
C 42.677692 50.603123 43.598682                                                 
C 46.691675 48.220258 43.586441                                                 
C 45.194033 36.562036 43.496938                                                 
C 33.346665 62.374529 44.540316                                                 
C 49.602713 66.794972 44.623001                                                 
C 41.461357 66.951692 44.636888                                                 
C 33.170069 43.696478 43.899673                                                 
C 53.644012 64.396526 44.660469                                                 
C 59.003399 59.660807 44.357782                                                 
C 45.424857 55.245304 43.669359                                                 
C 49.440617 52.858272 43.642785                                                 
C 41.306340 48.282363 43.578666                                                 
C 45.319165 45.902679 43.565219                                                 
C 37.372108 64.670353 44.597103                                                 
C 41.356842 52.953992 43.644191                                                 
C 49.383201 48.184126 43.599554                                                 
C 46.931949 66.861084 44.651248                                                 
C 41.192622 38.939323 43.484711                                                 
C 37.187891 41.314201 43.611469                                                 
C 42.625722 45.933550 43.556940                                                 
C 42.727546 55.274297 43.686064                                                 
C 50.754456 50.499857 43.622105                                                 
C 49.263175 38.845284 43.606145                                                 
C 54.993323 62.093081 44.407213                                                 
C 33.207940 48.363857 43.740108                                                 
C 53.324923 41.125803 43.773250                                                 
C 57.385006 43.403626 43.979722                                                 
C 50.962618 64.505571 44.432962                                                 
C 58.765587 45.698942 43.829264                                                 
C 46.578590 38.877784 43.541287                                                 
C 46.635609 43.550136 43.566198                                                 
C 38.608120 48.309247 43.604038                                                 
C 34.534463 46.026351 43.733223                                                 
C 33.252557 53.033665 43.786839                                                 
C 50.697286 45.829809 43.613531                                                 
C 38.655919 52.976503 43.676045                                                 
C 50.823304 55.170373 43.689435                                                 
C 41.252594 43.612168 43.540375                                                 
C 50.641089 41.157301 43.648315                                                 
C 46.805049 57.561553 43.737733                                                 
C 33.303735 57.685832 44.121444                                                 
C 58.919651 55.021460 43.792816                                                 
C 42.569945 41.263040 43.514922                                                 
C 38.557049 43.640815 43.582827                                                 
C 49.324947 43.514586 43.607016                                                 
C 45.261243 41.233087 43.535071                                                 
C 58.845529 50.352518 43.628666                                                 
C 37.282454 50.656469 43.650376                                                 
C 34.679887 60.001371 44.253282                                                 
C 37.236635 45.989506 43.629383                                                 
C 34.577969 50.686257 43.699511                                                 
C 54.693537 43.432646 43.794511                                                 
C 53.454405 50.454290 43.625072                                                 
C 49.507814 57.524263 43.753757                                                 
C 42.809293 64.606233 44.310413                                                 
C 41.404506 57.626602 43.791876                                                 
C 57.614790 57.356156 43.998574                                                 
C 34.627769 55.341768 43.866023                                                 
C 53.388573 45.790392 43.663972                                                 
C 57.462688 48.051510 43.669105                                                 
C 38.733668 62.303825 44.213948                                                 
C 37.330690 55.322488 43.792570                                                 
C 57.538353 52.708356 43.664125                                                 
C 54.774400 48.094489 43.656204                                                 
C 45.513048 64.566518 44.315719                                                 
C 53.522633 55.125265 43.718571                                                 
C 54.827184 52.767388 43.659795                                                 
C 38.707868 57.657150 43.874112                                                 
C 45.479772 59.909181 43.845744                                                 
C 37.383037 59.990828 44.076442                                                 
C 53.598070 59.776203 44.033538                                                 
C 42.775050 59.939487 43.870442                                                 
C 49.565248 62.179696 44.088858                                                 
C 41.442984 62.288728 44.092102                                                 
C 50.893280 59.832362 43.915080                                                 
C 54.905055 57.435829 43.897589                                                 
C 46.864174 62.220264 44.041333                                                 
H 44.162073 30.056812 49.323500                                                 
H 28.049172 39.598481 50.128954                                                 
H 48.852525 30.004475 49.457996                                                 
H 61.064687 36.914874 50.226617                                                 
H 63.458060 40.950733 50.164442                                                 
H 25.732992 43.683386 50.148765                                                 
H 28.240187 61.748581 50.463361                                                 
H 25.855483 57.727709 50.244097                                                 
H 36.098009 34.827155 49.468977                                                 
H 40.139154 32.441377 49.304565                                                 
H 32.069168 37.218108 49.805268                                                 
H 63.581159 50.298912 49.615076                                                 
H 36.398679 66.344463 50.550949                                                 
H 63.692781 59.647774 50.151429                                                 
H 44.566677 70.921688 50.833315                                                 
H 63.520588 45.615683 49.810625                                                 
H 32.320066 64.039339 50.498469                                                 
H 52.918177 32.314935 49.665673                                                 
H 56.992365 34.621588 49.953123                                                 
H 63.633414 54.983617 49.757105                                                 
H 61.377589 63.721994 50.502673                                                 
H 40.487913 68.640840 50.653955                                                 
H 49.256165 70.864032 50.889361                                                 
H 25.817910 53.052395 49.987283                                                 
H 25.777387 48.361404 49.967463                                                 
C 45.235847 31.840744 49.373169                                                 
C 47.816382 31.812243 49.445161                                                 
C 29.088341 41.401103 50.020575                                                 
C 60.059746 38.735259 50.099623                                                 
C 27.814364 43.649723 50.027942                                                 
C 61.376634 40.957140 50.068753                                                 
C 27.936504 57.718532 50.179394                                                 
C 29.253644 59.935308 50.307318                                                 
H 57.339426 66.090134 50.656685                                                 
H 53.290786 68.476426 50.777677                                                 
C 41.197434 34.237143 49.336571                                                 
C 37.157567 36.622361 49.465457                                                 
C 33.127159 39.013903 49.745472                                                 
C 61.606527 59.684759 50.133453                                                 
C 45.598495 69.118641 50.703899                                                 
C 60.335748 61.925205 50.322321                                                 
C 51.895948 34.131456 49.616830                                                 
C 48.188489 69.086885 50.728217                                                 
C 55.972079 36.437975 49.868655                                                 
C 61.434929 45.641613 49.777592                                                 
C 61.496918 50.325237 49.613263                                                 
C 33.343763 62.230340 50.343846                                                 
C 37.423045 64.534323 50.393177                                                 
C 27.861380 48.345308 49.873844                                                 
C 27.901748 53.035201 49.907943                                                 
C 61.549829 55.004690 49.749983                                                 
C 41.510742 66.829260 50.501145                                                 
C 43.830740 34.177171 49.357745                                                 
C 49.261036 34.123083 49.494265                                                 
C 31.807979 41.295236 49.841149                                                 
C 57.341745 38.693465 49.928740                                                 
C 29.133507 46.028303 49.871013                                                 
C 60.113215 43.365876 49.885337                                                 
C 29.215932 55.319581 49.969884                                                 
C 39.819467 36.546022 49.383592                                                 
C 31.977761 59.985523 50.221323                                                 
C 35.810358 38.918740 49.572493                                                 
C 53.301598 36.411138 49.689464                                                 
C 56.277526 64.305438 50.463156                                                 
C 52.229710 66.692534 50.587538                                                 
C 29.174281 50.676808 49.802200                                                 
C 45.369339 50.516097 49.383950                                                 
C 60.284793 57.309567 49.911700                                                 
C 60.177994 48.014694 49.652311                                                 
C 44.150868 66.827228 50.494110                                                 
C 36.031399 62.275552 50.254142                                                 
C 60.233425 52.666493 49.637087                                                 
C 40.087650 64.559365 50.326223                                                 
C 57.609092 62.031505 50.281754                                                 
C 49.586431 66.758513 50.538643                                                 
C 44.047774 52.863609 49.431999                                                 
C 48.062642 50.488860 49.404786                                                 
C 43.999141 48.200228 49.362744                                                 
C 53.596004 64.396218 50.409999                                                 
C 45.415947 55.177563 49.508451                                                 
C 49.431635 52.801494 49.459915                                                 
C 45.229188 36.515059 49.368694                                                 
C 41.353257 52.889874 49.453955                                                 
C 49.380583 48.141082 49.408335                                                 
C 47.909551 36.486947 49.436587                                                 
C 33.175386 43.647570 49.704842                                                 
C 41.306068 48.226126 49.377022                                                 
C 45.318494 45.851813 49.355498                                                 
C 31.854558 45.983615 49.732154                                                 
C 56.026231 41.073021 49.787976                                                 
C 57.391732 43.380224 49.772172                                                 
C 31.938886 55.313907 49.865825                                                 
C 33.305291 57.614832 49.970589                                                 
C 48.109734 55.148471 49.524946                                                 
C 39.983185 50.573702 49.424982                                                 
C 48.010509 45.824948 49.389802                                                 
C 51.969410 38.779609 49.591998                                                 
C 41.208552 38.890404 49.366088                                                 
C 37.192536 41.267018 49.500591                                                 
C 57.559849 57.360969 49.860858                                                 
C 31.894354 50.651468 49.688496                                                 
C 45.504606 64.475775 50.256890                                                 
C 57.454670 48.045323 49.596088                                                 
C 56.240781 59.691066 50.028785                                                 
C 37.371656 59.910149 49.991793                                                 
C 48.188762 64.444236 50.283148                                                 
C 57.511245 52.704791 49.597975                                                 
C 41.435421 62.198570 50.066964                                                 
C 40.027564 55.238007 49.576298                                                 
C 44.089589 57.523445 49.641349                                                 
C 52.125672 52.769384 49.502882                                                 
C 52.073377 48.112743 49.463823                                                 
C 39.935112 45.906253 49.394989                                                 
C 49.282248 38.805277 49.464724                                                 
C 43.947843 43.532731 49.350825                                                 
C 43.897979 38.859694 49.353211                                                 
C 35.868925 43.610466 49.554808                                                 
C 53.336503 41.095619 49.629312                                                 
C 33.218717 48.306550 49.622996                                                 
C 33.262764 52.966598 49.688643                                                 
C 39.882639 41.234434 49.400793                                                 
C 41.395530 57.548349 49.679774                                                 
C 56.084357 45.733231 49.628355                                                 
C 53.443031 50.424625 49.489031                                                 
C 41.256600 43.560049 49.367933                                                 
C 36.001918 57.604743 49.860269                                                 
C 52.213730 62.072115 50.139138                                                 
C 37.288230 50.598348 49.484699                                                 
C 56.142798 50.393660 49.542064                                                 
C 49.327434 43.476197 49.429176                                                 
C 40.063694 59.895055 49.896028                                                 
C 49.476268 57.459158 49.668701                                                 
C 56.194388 55.047669 49.675315                                                 
C 44.126882 62.175344 50.026340                                                 
C 45.270478 41.184681 49.357369                                                 
C 37.241044 45.934965 49.471071                                                 
C 37.332336 55.258321 49.652205                                                 
C 53.387177 45.762470 49.530700                                                 
C 47.958785 41.157681 49.409189                                                 
C 35.918263 48.280034 49.514379                                                 
C 52.018263 43.449061 49.525011                                                 
C 35.963216 52.944876 49.591617                                                 
C 45.458186 59.831564 49.805632                                                 
C 53.541941 59.735435 49.950510                                                 
C 49.522261 62.109580 50.065821                                                 
C 53.494200 55.082255 49.615550                                                 
C 48.150545 59.800528 49.825800                                                 
C 52.171566 57.423662 49.726783                                                 
Li 59.654877 41.724090 40.563241                                                
Li 31.856422 60.419520 41.136961                                                
Li 31.325322 41.487668 40.768060                                                
Li 46.416824 67.308449 40.749774                                                
Li 59.086589 60.389784 40.544946                                                
Li 54.331567 64.216460 40.798484                                                
Li 39.043780 65.852943 40.917737                                                
Li 38.743800 34.744440 40.243560                                                
%ENDBLOCK POSITIONS_ABS                                                         

--------------------------------------------------------------------------------
-------------------------------- END INPUT FILE --------------------------------
--------------------------------------------------------------------------------


 
<<<<<<<<<<<<<<<<<<<<<<<<<<<<<<<<< Full system >>>>>>>>>>>>>>>>>>>>>>>>>>>>>>>>>>
<<<<<<<<<<<<<<<<<<<<<<<<<<< PAW Dataset information >>>>>>>>>>>>>>>>>>>>>>>>>>>
File: ~/pp/paw/c_pbe_abinit.paw; rc = 1.25 bohr; shape type =  3; rshape = 1.25 bohr;
  Atomic number:  6;  ionic charge:  4.000000
    Partial Wave 1: l = 0
    Partial Wave 2: l = 0
    Partial Wave 3: l = 1
    Partial Wave 4: l = 1
  Core charge supplied for Nonlinear Core Corrections
File: ~/pp/paw/h_pbe_abinit.paw; rc = 0.90 bohr; shape type =  3; rshape = 0.90 bohr;
  Atomic number:  1;  ionic charge:  1.000000
    Partial Wave 1: l = 0
    Partial Wave 2: l = 0
File: ~/pp/paw/li_pbe_abinit.paw; rc = 1.42 bohr; shape type =  3; rshape = 1.42 bohr;
  Atomic number:  3;  ionic charge:  3.000000
    Partial Wave 1: l = 0
    Partial Wave 2: l = 0
    Partial Wave 3: l = 0
    Partial Wave 4: l = 1
    Partial Wave 5: l = 1
<<<<<<<<<<<<<<<<<<<<<<<<<<<<<<<<<<<<<<< >>>>>>>>>>>>>>>>>>>>>>>>>>>>>>>>>>>>>>>

-------------------------- Atom counting information ---------------------------
Symbol    Natoms    Nngwfs    Nprojs
  C        484      1936      3872
  H        108       108       216
  Li         8        40        72
.......   ......    ......    ......
Totals:    600      2084      4160
--------------------------------------------------------------------------------

=============================== PSINC grid sizes ===============================
                      Simulation cell:  189 x 189 x 189
                              FFT-box:  117 x 117 x 117
                                  PPD:    7 x   7 x   1
Grid space d1=  0.499927596032a0 (KE cutoff=  30.39413Eh = 827.06648eV)
Grid space d2=  0.499927596032a0 (KE cutoff=  30.39413Eh = 827.06648eV)
Grid space d3=  0.499927596032a0 (KE cutoff=  30.39413Eh = 827.06648eV)
================================================================================

********************* Fourier parallelisation information **********************
       Coarse grid (whole simulation cell) dimensions:    189   189   189
          Real-space ('12') slabs/proc (min max mean):      4     5     4
         Recip-space ('23') slabs/proc (min max mean):      2     3     2
********************************************************************************

********************* Fourier parallelisation information **********************
       Double grid (whole simulation cell) dimensions:    378   378   378
          Real-space ('12') slabs/proc (min max mean):      9    10     9
         Recip-space ('23') slabs/proc (min max mean):      4     5     4
********************************************************************************

Atom SCF Calculation for C  : Z (AE atom) =   6 : Z (PS atom) =   4
Config String: 2s2 2p2
Orbitals (num,occ):  2     2.00 2.00
Orbitals   (num,l):  2        0    1
Real-space Grid (nr,dr,rmax): 1377    0.0065406977    9.0000000000
Spherical Bessel Basis (nsws,lmax,cutoff):   37    2  183.0099912382
Confining potential (l,width,scale):  0    3.0000000000  100.0000000000
Confining potential (l,width,scale):  1    3.0000000000  100.0000000000
  1         -5.4795186097   -1.3252230651    4.5135247139   -1.6370402178
  2         -5.4480873667   -1.4027986130    4.4305957006   -1.6109824140
  3         -5.4553175168   -1.4212842775    4.4102621601   -1.6059044058
  4         -5.4627851864   -1.4247099971    4.4065125496   -1.6052912254
  5         -5.4662317525   -1.4266823431    4.4043718731   -1.6049357348
  6         -5.4679531179   -1.4277361345    4.4032352159   -1.6047498153
  7         -5.4688370531   -1.4282876632    4.4026436340   -1.6046546171
  8         -5.4692962224   -1.4285743132    4.4023378281   -1.6046060967
  9         -5.4695360875   -1.4287229388    4.4021801230   -1.6045813828
 10         -5.4696617783   -1.4287999625    4.4020988354   -1.6045687883
 11         -5.4697277645   -1.4288398966    4.4020569195   -1.6045623641
 12         -5.4697624500   -1.4288606199    4.4020352864   -1.6045590836
 13         -5.4697806994   -1.4288713865    4.4020241086   -1.6045574064
 14         -5.4697903086   -1.4288769875    4.4020183254   -1.6045565478
 15         -5.4697953717   -1.4288799052    4.4020153292   -1.6045561077
 16         -5.4697980412   -1.4288814272    4.4020137746   -1.6045558818
 17         -5.4697994496   -1.4288822223    4.4020129668   -1.6045557657
 18         -5.4698001930   -1.4288826382    4.4020125465   -1.6045557059
 19         -5.4698005858   -1.4288828561    4.4020123274   -1.6045556751
 20         -5.4698007933   -1.4288829704    4.4020122131   -1.6045556592
 21         -5.4698009031   -1.4288830304    4.4020121533   -1.6045556509
 22         -5.4698009612   -1.4288830620    4.4020121220   -1.6045556467
Atom SCF converged after  22 iterations to a total energy of     -5.46980096

Atom SCF Calculation for H  : Z (AE atom) =   1 : Z (PS atom) =   1
Config String: 1s1
Orbitals (num,occ):  1     1.00
Orbitals   (num,l):  1        0
Real-space Grid (nr,dr,rmax): 1377    0.0065406977    9.0000000000
Spherical Bessel Basis (nsws,lmax,cutoff):   37    1  183.0099912382
Confining potential (l,width,scale):  0    3.0000000000  100.0000000000
  1         -0.3687944832   -0.2607687933    0.2820952946   -0.2613406499
  2         -0.4328656062   -0.2590521405    0.2895573663   -0.2701762133
  3         -0.4633856573   -0.2560091938    0.2934204754   -0.2757429988
  4         -0.4750266404   -0.2549676794    0.2946557510   -0.2779015032
  5         -0.4793045155   -0.2546870695    0.2949704774   -0.2786577123
  6         -0.4808919118   -0.2546234645    0.2950332622   -0.2789201171
  7         -0.4814942533   -0.2546130669    0.2950388368   -0.2790132353
  8         -0.4817280090   -0.2546133926    0.2950352123   -0.2790473458
  9         -0.4818204053   -0.2546148712    0.2950319888   -0.2790602287
 10         -0.4818574273   -0.2546158825    0.2950301416   -0.2790652181
 11         -0.4818724050   -0.2546164247    0.2950292178   -0.2790671871
 12         -0.4818785049   -0.2546166894    0.2950287833   -0.2790679748
 13         -0.4818810009   -0.2546168128    0.2950285855   -0.2790682928
 14         -0.4818820255   -0.2546168689    0.2950284970   -0.2790684221
 15         -0.4818824471   -0.2546168940    0.2950284580   -0.2790684748
 16         -0.4818826210   -0.2546169051    0.2950284408   -0.2790684964
 17         -0.4818826928   -0.2546169100    0.2950284333   -0.2790685053
Atom SCF converged after  17 iterations to a total energy of     -0.48188269

Atom SCF Calculation for Li : Z (AE atom) =   3 : Z (PS atom) =   3
Config String: 1s2 2s1 2p0
Orbitals (num,occ):  3     2.00 1.00 0.00
Orbitals   (num,l):  3        0    0    1
Real-space Grid (nr,dr,rmax): 1377    0.0065406977    9.0000000000
Spherical Bessel Basis (nsws,lmax,cutoff):   37    2  183.0099912382
Confining potential (l,width,scale):  0    3.0000000000  100.0000000000
Confining potential (l,width,scale):  1    3.0000000000  100.0000000000
  1         -6.1314629607   -4.7499359229    2.5388576516   -1.0480231927
  2         -7.0450508208   -4.1702030791    2.9795337774   -1.2623862962
  3         -7.3518474013   -3.9564527259    3.2037296734   -1.3880788964
  4         -7.4613386962   -3.8947565558    3.2914990517   -1.4402825036
  5         -7.5001516047   -3.8789668192    3.3221434609   -1.4602864917
  6         -7.5136113510   -3.8755528126    3.3322769691   -1.4678164580
  7         -7.5181182589   -3.8751724459    3.3354399675   -1.4706394447
  8         -7.5195538340   -3.8753832694    3.3363346353   -1.4716958846
  9         -7.5199777516   -3.8756112412    3.3365363545   -1.4720903919
 10         -7.5200869011   -3.8757624244    3.3365501247   -1.4722372325
 11         -7.5201065703   -3.8758489541    3.3365264569   -1.4722916218
 12         -7.5201049812   -3.8758952022    3.3365040630   -1.4723116262
 13         -7.5201006323   -3.8759190019    3.3364892955   -1.4723189110
 14         -7.5200980758   -3.8759285770    3.3364824548   -1.4723210036
 15         -7.5200963811   -3.8759342877    3.3364781194   -1.4723220111
 16         -7.5200953120   -3.8759376792    3.3364754203   -1.4723224913
 17         -7.5200946593   -3.8759396866    3.3364737619   -1.4723227171
 18         -7.5200942701   -3.8759408718    3.3364727530   -1.4723228213
 19         -7.5200940419   -3.8759415700    3.3364721439   -1.4723228682
 20         -7.5200939099   -3.8759419808    3.3364717784   -1.4723228886
 21         -7.5200938343   -3.8759422222    3.3364715600   -1.4723228969
Atom SCF converged after  21 iterations to a total energy of     -7.52009383

================================================================================
<<<<<<<<<<<<<<<< Resuming previous ONETEP Geometry Optimisation >>>>>>>>>>>>>>>>
================================================================================

 Geometry Optimisation: output file is "592nano.geom"
 
 Geometry Optimisation: write_hamiltonian parameter over-ridden to T
 Reading continuation file "592nano.continuation" ...done
 Geometry Optimisation: read_hamiltonian parameter over-ridden to T
 
                           -------------------------------
                                     Cell Contents
                           -------------------------------
 
            xxxxxxxxxxxxxxxxxxxxxxxxxxxxxxxxxxxxxxxxxxxxxxxxxxxxxxxxxxxx
            x  Element    Atom      Absolute co-ordinates of atoms     x
            x            Number        x           y           z       x
            x----------------------------------------------------------x
            x    C         1       43.014521   41.242481   31.891361   x
            x    C         2       38.929691   43.495456   31.819247   x
            x    C         3       41.713542   38.875897   31.783251   x
            x    C         4       45.703231   41.294567   31.943912   x
            x    C         5       37.633235   41.127492   31.671352   x
            x    C         6       37.539377   45.799391   31.854003   x
            x    C         7       54.988743   48.473352   31.916648   x
            x    C         8       54.902774   53.140174   31.923047   x
            x    C         9       53.688777   46.117147   31.920212   x
            x    C        10       38.651934   57.485029   31.910876   x
            x    C        11       42.650691   59.899989   31.867861   x
            x    C        12       37.351487   55.129422   31.958608   x
            x    C        13       53.514974   55.445936   31.909313   x
            x    C        14       45.342408   59.954814   31.875351   x
            x    C        15       47.099820   38.982466   31.909479   x
            x    C        16       41.621793   43.548843   31.914555   x
            x    C        17       34.840702   45.748915   31.751102   x
            x    C        18       51.090754   41.393106   31.908424   x
            x    C        19       53.601870   50.781853   31.989618   x
            x    C        20       34.742329   50.409115   31.920802   x
            x    C        21       41.347458   57.542884   31.963911   x
            x    C        22       39.026490   38.818356   31.648518   x
            x    C        23       55.078589   43.805456   31.797381   x
            x    C        24       49.696544   43.706120   31.979566   x
            x    C        25       37.444143   50.464371   31.983058   x
            x    C        26       49.430484   57.703068   31.931360   x
            x    C        27       34.651396   55.071814   31.886956   x
            x    C        28       57.685755   48.524946   31.803327   x
            x    C        29       50.734871   60.064255   31.768704   x
            x    C        30       57.601025   53.186532   31.818184   x
            x    C        31       37.258303   59.792237   31.758394   x
            x    C        32       54.817949   57.806354   31.743715   x
            x    C        33       50.820782   55.399043   31.985524   x
            x    C        34       46.736864   57.651687   31.972722   x
            x    C        35       41.253363   62.206245   31.709889   x
            x    C        36       46.648532   62.316472   31.720051   x
            x    C        37       47.005506   43.653336   31.993950   x
            x    C        38       50.995999   46.062736   31.995931   x
            x    C        39       38.835566   48.160888   31.965222   x
            x    C        40       38.742399   52.822266   32.019471   x
            x    C        41       49.788026   39.037322   31.901034   x
            x    C        42       33.449834   48.050007   31.819355   x
            x    C        43       43.111583   36.568582   31.759243   x
            x    C        44       53.779126   41.451269   31.813647   x
            x    C        45       34.942423   41.090521   31.509627   x
            x    C        46       33.354400   52.714445   31.903995   x
            x    C        47       45.791964   36.625047   31.849109   x
            x    C        48       33.554365   43.386654   31.563815   x
            x    C        49       58.985358   50.880825   31.774057   x
            x    C        50       53.426939   60.106009   31.665102   x
            x    C        51       49.338523   62.365063   31.665375   x
            x    C        52       38.561732   62.146635   31.649376   x
            x    C        53       50.908011   50.731103   32.050002   x
            x    C        54       42.739532   55.238356   32.044963   x
            x    C        55       42.921055   45.908071   31.997612   x
            x    C        56       57.770189   43.869373   31.646200   x
            x    C        57       59.066629   46.214099   31.652321   x
            x    C        58       33.267492   57.381156   31.751152   x
            x    C        59       34.562913   59.727715   31.663012   x
            x    C        60       58.898275   55.546769   31.676012   x
            x    C        61       49.518774   53.038131   32.062110   x
            x    C        62       45.433840   55.292515   32.054747   x
            x    C        63       57.514227   57.840483   31.620009   x
            x    C        64       49.606386   48.372247   32.055813   x
            x    C        65       41.438055   52.878264   32.063060   x
            x    C        66       42.561478   64.560425   31.559636   x
            x    C        67       41.529860   48.214502   32.023263   x
            x    C        68       45.613574   45.960560   32.032457   x
            x    C        69       45.245642   64.614440   31.570313   x
            x    C        70       37.727106   36.433056   31.472752   x
            x    C        71       46.825166   52.985780   32.083491   x
            x    C        72       42.829784   50.573381   32.070900   x
            x    C        73       46.914179   48.320253   32.069025   x
            x    C        74       41.792252   34.188268   31.612392   x
            x    C        75       33.656467   38.698004   31.329277   x
            x    C        76       51.197646   36.707373   31.846492   x
            x    C        77       55.180263   39.116767   31.706666   x
            x    C        78       30.726733   47.998961   31.748736   x
            x    C        79       47.214384   34.301539   31.821309   x
            x    C        80       30.630700   52.655009   31.844765   x
            x    C        81       30.832965   43.352745   31.441009   x
            x    C        82       45.524063   50.626916   32.090353   x
            x    C        83       61.702809   50.929453   31.651982   x
            x    C        84       39.159382   34.161598   31.435416   x
            x    C        85       35.052286   36.451457   31.341147   x
            x    C        86       37.156474   64.465975   31.458082   x
            x    C        87       59.155871   41.530205   31.474444   x
            x    C        88       54.738027   62.486501   31.446656   x
            x    C        89       50.657564   64.741971   31.461677   x
            x    C        90       61.785109   46.284594   31.508646   x
            x    C        91       30.543507   57.307383   31.672036   x
            x    C        92       61.619186   55.574657   31.557671   x
            x    C        93       33.173039   62.062038   31.476224   x
            x    C        94       41.137715   66.871740   31.374905   x
            x    C        95       58.812779   60.224652   31.400524   x
            x    C        96       46.574701   66.984597   31.387536   x
            x    C        97       49.845998   34.385472   31.850229   x
            x    C        98       29.492004   45.616553   31.578687   x
            x    C        99       63.034139   48.609293   31.537757   x
            x    C       100       53.858645   36.808062   31.772837   x
            x    C       101       62.952333   53.295570   31.575965   x
            x    C       102       57.861281   39.238051   31.537872   x
            x    C       103       29.387671   50.299987   31.818347   x
            x    C       104       43.258099   31.894778   31.680457   x
            x    C       105       34.477889   64.354350   31.387387   x
            x    C       106       38.495755   66.781076   31.339942   x
            x    C       107       29.297013   54.989035   31.766722   x
            x    C       108       30.935025   38.722345   31.157322   x
            x    C       109       45.840008   31.949125   31.769779   x
            x    C       110       29.594420   40.935032   31.217075   x
            x    C       111       57.426081   62.463908   31.334871   x
            x    C       112       53.323198   64.738557   31.370861   x
            x    C       113       49.213071   67.004083   31.358251   x
            x    H       114       38.144562   32.326806   31.433538   x
            x    H       115       34.038175   34.633712   31.235374   x
            x    C       116       63.125425   43.922701   31.313788   x
            x    C       117       61.871431   41.661053   31.292794   x
            x    C       118       62.873720   57.983869   31.373925   x
            x    C       119       29.202605   59.674651   31.497198   x
            x    C       120       30.451424   61.936467   31.394535   x
            x    C       121       61.535744   60.195888   31.288955   x
            x    C       122       42.511889   69.218079   31.229969   x
            x    C       123       45.099483   69.270006   31.237357   x
            x    H       124       65.035741   53.331574   31.485612   x
            x    H       125       65.115775   48.649384   31.436793   x
            x    H       126       50.921635   32.600856   31.856251   x
            x    H       127       42.230094   30.083335   31.651963   x
            x    H       128       29.943115   36.896928   30.999237   x
            x    H       129       27.408241   45.572105   31.535060   x
            x    H       130       37.417045   68.560349   31.199320   x
[...]
                        .......   ...........   .........
                         2084     0.764241795   0.0000000

================================================================================

============== Orbital energy and occupancy information for spin 2 =============

      Total number of orbitals:    2084
        Occupancy sum (kernel):    1034.000000034
   Occupancy sum (eigenvalues):    1034.000000034
                 HOMO-LUMO gap:       0.002447901 Eh
                 Mid-gap level:      -0.103250456 Eh

                        Orbital | Energy (Eh) | Occupancy
                            1    -1.862091206   1.0000000
                        .......   ...........   .........
                         1026    -0.144763424   0.9999923
                         1027    -0.144557554   0.9999919
                         1028    -0.140879477   0.9999741
                         1029    -0.139857266   0.9999642
                         1030    -0.136803210   0.9999063
                         1031    -0.116761839   0.9504406
                         1032    -0.115100783   0.9189202
                         1033    -0.112507759   0.8331788
                         1034    -0.109266460   0.6424895
                         1035    -0.104474407   0.2830738
                        ....... -- gap at 0K -- .........
                         1036    -0.102026506   0.1540804
                         1037    -0.101510988   0.1340023
                         1038    -0.098268220   0.0527815
                         1039    -0.093089901   0.0107319
                         1040    -0.091208165   0.0059602
                         1041    -0.089694310   0.0037008
                         1042    -0.088300887   0.0023768
                         1043    -0.087823707   0.0020488
                         1044    -0.087717766   0.0019822
                         1045    -0.087196029   0.0016832
                        .......   ...........   .........
                         2084     0.764241796   0.0000000

================================================================================

===================== Writing canonical molecular orbitals =====================
    Spin 1
| Orbital  Energy (eV)  Norm     |
| HOMO     -2.97329165  1.000000 | Writing "592nano_HOMO_UP.cube" ... done
Writing "592nano_HOMO_UP.dx" ... done
| LUMO     -2.84289325  1.000000 | Writing "592nano_LUMO_UP.cube" ... done
Writing "592nano_LUMO_UP.dx" ... done
================================================================================

===================== Writing canonical molecular orbitals =====================
    Spin 2
| Orbital  Energy (eV)  Norm     |
| HOMO     -2.84289327  1.000000 | Writing "592nano_HOMO_DN.cube" ... done
Writing "592nano_HOMO_DN.dx" ... done
| LUMO     -2.77628249  1.000000 | Writing "592nano_LUMO_DN.cube" ... done
Writing "592nano_LUMO_DN.dx" ... done
================================================================================

================== Local Density of States (LDOS) calculation ==================
Writing "592nano_UP_LDOS.txt" ...  done
================================================================================

================== Local Density of States (LDOS) calculation ==================
Writing "592nano_DN_LDOS.txt" ...  done
================================================================================
 
=============== Density of States (DOS) calculation for UP spin ================
Writing "592nano_UP_DOS.txt" ...  done
================================================================================
 
============== Density of States (DOS) calculation for DOWN spin ===============
Writing "592nano_DN_DOS.txt" ...  done
================================================================================
 
Writing bands to file "592nano.val_bands" ... done
 
================ Projected Density of States (pDOS) calculation ================
 
Constructing AM resolved functions  ...... done
Writing NGWF plot files in formats: CUBE DX ...  done
 
Performing overlap integrals ...  done
 
Computing pDOS weights ...  done
 
All bands spilling parameter =   3.47 %
Occupancy-weighted spilling parameter =   0.91 %
 
 => Outputting data for OptaDOS <=
 
Writing pDOS weights to file "592nano.val_pdos_bin" ... done
 
Writing band gradients to file "592nano.val_dome_bin" ... done
 
Writing Castep output cell file to "592nano-out.cell" ... done
 
 => Computing Gaussian smeared pDOS for UP spin<= 
Writing "592nano_UP_PDOS.txt" ...  done
 
 => Computing Gaussian smeared pDOS for DOWN spin<= 
Writing "592nano_DN_PDOS.txt" ...  done
 
 => Computing Occupancy-weighted Gaussian smeared pDOS for UP spin<= 
Writing "592nano_occ_UP_PDOS.txt" ...  done
  => Band centres for UP spin channel: 
 S band centre of group 1:  -14.776049 eV
 P band centre of group 1:   -7.747836 eV
  Band centres for UP spin channel done. <= 
  => Integrated number of electrons in each AM band for UP spin channel: 
 S num electrons of group 1:  274.890777
 P num electrons of group 1:  749.667589
  Integrated number of electrons for UP spin channel done. <= 
 
 => Computing Occupancy-weighted Gaussian smeared pDOS for DOWN spin<= 
Writing "592nano_occ_DN_PDOS.txt" ...  done
  => Band centres for DOWN spin channel: 
 S band centre of group 1:  -14.776049 eV
 P band centre of group 1:   -7.747836 eV
  Band centres for DOWN spin channel done. <=
  => Integrated number of electrons in each AM band for DOWN spin channel: 
 S num electrons of group 1:  274.890777
 P num electrons of group 1:  749.667589
  Integrated number of electrons for DOWN spin channel done. <=
================================================================================

================================= Core Density =================================
               Core den box size:   21 x  21 x  21
================================================================================

------------------------------ TIMING INFORMATION ------------------------------
AVERAGE TIME:   21056.736s on     40 proc(s)                                    
TOTAL TIME:     21056.822s on     40 proc(s)                                    
================= AVERAGE TIMINGS FROM ALL PROCS (CUMULATIVE) ==================
|| TAG                                    #calls    cpu time   %total  Gflops ||
|| work_imbalance                       :     1        0.00s   0.000%  ------ ||
|| ewald_calculate_forces_realspace     :     3        0.02s   0.000%  ------ ||
|| paw_dij_hartree                      :   201        0.02s   0.000%  ------ ||
|| paw_sphere_density_on_grid           :     1        0.04s   0.000%  ------ ||
|| sparse_set_to_garbage                :   333        0.05s   0.000%  ------ ||
|| ngwfs_initialise_from_radial         :     1        0.05s   0.000%  ------ ||
|| paw_tcore_density                    :     3        0.05s   0.000%  ------ ||
|| basis_extract_function_from_box      :  2344        0.15s   0.001%  ------ ||
|| paw_dataset_init                     :     3        0.31s   0.001%  ------ ||
|| restart_kernel_read                  :     3        0.46s   0.002%  ------ ||
|| paw_tcore_hartree_on_grid            :     3        0.55s   0.003%  ------ ||
|| restart_hamiltonian_read             :     3        0.67s   0.003%  ------ ||
|| ewald_calculate_energy               :     3        0.68s   0.003%  ------ ||
|| augmentation_density_forces          :     3        0.74s   0.003%  ------ ||
|| dense_normal_eigensolve              :     1        1.08s   0.005%  ------ ||
|| restart_hamiltonian_write            :    21        1.52s   0.007%  ------ ||
|| ewald_calculate_forces_recipspace    :     3        1.78s   0.008%  ------ ||
|| ewald_calculate_forces               :     3        1.84s   0.009%  ------ ||
|| restart_kernel_write                 :    21        1.85s   0.009%  ------ ||
|| sparse_init                          :     3        2.43s   0.012%  ------ ||
|| paw_species_calc_proj_prec_mat       :     3        4.54s   0.022%  ------ ||
|| pseudo_make_structure_factor         :     3        4.83s   0.023%  ------ ||
|| sw_init                              :     1        4.98s   0.024%  ------ ||
|| paw_tcore_hartree_calc_forces        :     3        5.88s   0.028%  ------ ||
|| integrals_grad                       :     3        6.52s   0.031%  ------ ||
|| nonsc_forces_ngwfs_calc              :     3        6.52s   0.031%  ------ ||
|| augmentation_screen_dij              :   144        7.23s   0.034%  ------ ||
|| restart_ngwfs_tightbox_input         :     3        8.54s   0.041%  ------ ||
|| paw_dij_xc                           :   201       15.73s   0.075%  ------ ||
|| sparse_embed_hotelling_invert_embed  :    39       16.44s   0.078%  ------ ||
|| basis_copy_function_to_box           : 23497       17.97s   0.085%  ------ ||
|| aug_nonlocal_mat                     :   177       25.26s   0.120%  ------ ||
|| ngwf_gradient_coeffs                 :    21       31.81s   0.151%  ------ ||
|| sparse_trace                         :  3478       33.51s   0.159%  ------ ||
|| augmentation_density_on_grid         :   139       44.69s   0.212%  ------ ||
|| paw_nlcc_calculate_forces            :     3       49.25s   0.234%  ------ ||
|| hartree_on_grid                      :   135       51.44s   0.244%  ------ ||
|| projectors_init_fftbox_recip         :   220       54.56s   0.259%  ------ ||
|| projectors_func_grad_ovlp_box        :     9       61.09s   0.290%  ------ ||
|| fourier_apply_box_pair               :  5472       61.31s   0.291% 589.272 ||
|| eigenstates_pdos                     :     1       67.82s   0.322%  ------ ||
|| aug_nl_calculate_forces              :     3       70.55s   0.335%  ------ ||
|| dense_eigensolve                     :   174      111.12s   0.528%  ------ ||
|| basis_dot_function_with_box          : 6.716M     120.69s   0.573%  ------ ||
|| eigenstates_calculate                :     1      130.77s   0.621%  ------ ||
|| edft_diag_ngwf_ham                   :   172      193.81s   0.920%  ------ ||
|| sparse_product                       :  4534      208.24s   0.989%  ------ ||
|| projectors_func_ovlp_box             :    40      240.83s   1.144%  ------ ||
|| restart_ngwfs_tightbox_output        :    18      254.35s   1.208%  ------ ||
|| function_ops_brappd_ketppd           :    78      268.07s   1.273%  ------ ||
|| cell_grid_deposit_box_real           : 33935      350.65s   1.665%  ------ ||
|| forces_calculate                     :     3      360.17s   1.710%  ------ ||
|| edft_apply_smearing_operator         :    86      377.56s   1.793%  ------ ||
|| cell_grid_extract_box_real           : 13181      414.80s   1.970%  ------ ||
|| integrals_kinetic                    :    39      428.85s   2.037%  ------ ||
|| basis_add_function_to_box            : 19.17M     451.15s   2.143%  ------ ||
|| hamiltonian_energy_components        :     5      538.28s   2.556%  ------ ||
|| density_fftbox_deposit_to_cell       : 14734      674.78s   3.205%  ------ ||
|| fourier_apply_cell_backward          :  5618      964.90s   4.582%  20.265 ||
|| potential_apply_to_ngwf_batch        :   436     1004.27s   4.769%  ------ ||
|| properties_calculate                 :     1     1005.76s   4.776%  ------ ||
|| integrals_locpot_mat_els_batch       :   436     1190.94s   5.656%  ------ ||
|| fourier_apply_cell_forward           :  5070     1205.57s   5.725%  14.638 ||
|| density_fftbox_interpolate_multiply  : 14734     1283.51s   6.096%  ------ ||
|| density_batch_row_sums               :   556     1558.23s   7.400%  ------ ||
|| fourier_apply_box                    : 87777     1586.62s   7.535%  1.111k ||
|| projectors_gradient_batch            :    84     2123.78s  10.086%  ------ ||
|| integrals_locpot_dbl_grid            :   109     2201.03s  10.453%  ------ ||
|| xc_energy_potential                  :   137     2274.00s  10.799%  ------ ||
|| density_batch_interp_deposit         :   556     2351.60s  11.168%  ------ ||
|| nlxc_vdw_energy                      :   274     3139.23s  14.908%  ------ ||
|| projectors_grad_precond_batch        :    84     3986.73s  18.933%  ------ ||
|| density_on_dbl_grid                  :   139     4048.58s  19.227%  ------ ||
|| hamiltonian_lhxc_calculate           :   129     6064.87s  28.803%  ------ ||
|| ngwf_gradient_build_batch            :    84     6755.60s  32.083%  ------ ||
|| edft_calculate                       :    21     7426.36s  35.268%  ------ ||
|| ngwf_gradient_batch                  :    84     7467.29s  35.463%  ------ ||
|| ngwf_gradient_lnv                    :    21     9284.49s  44.093%  ------ ||
|| ngwf_cg_optimise                     :     3    19600.40s  93.084%  ------ ||
|| total_time                           :     1    21056.74s 100.000%  ------ ||
================================================================================
==================== AVERAGE TIMINGS FROM ALL PROCS (SELF) =====================
++ TAG                                    #calls    cpu time   %total  Gflops ++
++ nlxc_vdw_energy                      :   274      -93.75s  -0.445%  ------ ++
++ work_imbalance                       :     1        0.00s   0.000%  ------ ++
++ nonsc_forces_ngwfs_calc              :     3        0.00s   0.000%  ------ ++
++ ewald_calculate_forces_realspace     :     3        0.02s   0.000%  ------ ++
++ paw_dij_hartree                      :   201        0.02s   0.000%  ------ ++
++ paw_sphere_density_on_grid           :     1        0.02s   0.000%  ------ ++
++ paw_tcore_density                    :     3        0.04s   0.000%  ------ ++
++ ewald_calculate_forces               :     3        0.04s   0.000%  ------ ++
++ sparse_set_to_garbage                :   333        0.05s   0.000%  ------ ++
++ ngwfs_initialise_from_radial         :     1        0.05s   0.000%  ------ ++
++ paw_tcore_hartree_on_grid            :     3        0.08s   0.000%  ------ ++
++ paw_nlcc_calculate_forces            :     3        0.08s   0.000%  ------ ++
++ augmentation_density_forces          :     3        0.11s   0.001%  ------ ++
++ basis_extract_function_from_box      :  2344        0.15s   0.001%  ------ ++
++ aug_nl_calculate_forces              :     3        0.19s   0.001%  ------ ++
++ sparse_embed_hotelling_invert_embed  :    39        0.22s   0.001%  ------ ++
++ paw_dataset_init                     :     3        0.31s   0.001%  ------ ++
++ ngwf_gradient_coeffs                 :    21        0.36s   0.002%  ------ ++
++ restart_kernel_read                  :     3        0.46s   0.002%  ------ ++
++ restart_hamiltonian_read             :     3        0.67s   0.003%  ------ ++
++ ewald_calculate_energy               :     3        0.68s   0.003%  ------ ++
++ aug_nonlocal_mat                     :   177        1.00s   0.005%  ------ ++
++ dense_normal_eigensolve              :     1        1.08s   0.005%  ------ ++
++ forces_calculate                     :     3        1.42s   0.007%  ------ ++
++ restart_hamiltonian_write            :    21        1.52s   0.007%  ------ ++
++ hartree_on_grid                      :   135        1.54s   0.007%  ------ ++
++ ewald_calculate_forces_recipspace    :     3        1.78s   0.008%  ------ ++
++ restart_kernel_write                 :    21        1.85s   0.009%  ------ ++
++ sparse_init                          :     3        2.43s   0.012%  ------ ++
++ restart_ngwfs_tightbox_input         :     3        2.60s   0.012%  ------ ++
++ integrals_grad                       :     3        3.05s   0.014%  ------ ++
++ paw_species_calc_proj_prec_mat       :     3        3.82s   0.018%  ------ ++
++ hamiltonian_energy_components        :     5        4.34s   0.021%  ------ ++
++ augmentation_screen_dij              :   144        4.66s   0.022%  ------ ++
++ pseudo_make_structure_factor         :     3        4.83s   0.023%  ------ ++
++ sw_init                              :     1        4.98s   0.024%  ------ ++
++ paw_tcore_hartree_calc_forces        :     3        5.34s   0.025%  ------ ++
++ integrals_locpot_dbl_grid            :   109        5.82s   0.028%  ------ ++
++ main_program_(onetep.F90)            :     1        6.30s   0.030%  ------ ++
++ augmentation_density_on_grid         :   139       10.97s   0.052%  ------ ++
++ paw_dij_xc                           :   201       15.73s   0.075%  ------ ++
++ basis_copy_function_to_box           : 23497       17.97s   0.085%  ------ ++
++ sparse_trace                         :  3478       33.51s   0.159%  ------ ++
++ edft_calculate                       :    21       42.14s   0.200%  ------ ++
++ eigenstates_calculate                :     1       45.28s   0.215%  ------ ++
++ projectors_func_grad_ovlp_box        :     9       45.54s   0.216%  ------ ++
++ eigenstates_pdos                     :     1       45.66s   0.217%  ------ ++
++ projectors_init_fftbox_recip         :   220       54.56s   0.259%  ------ ++
++ fourier_apply_box_pair               :  5472       61.31s   0.291% 589.272 ++
++ hamiltonian_lhxc_calculate           :   129       66.29s   0.315%  ------ ++
++ edft_diag_ngwf_ham                   :   172       84.00s   0.399%  ------ ++
++ dense_eigensolve                     :   174      111.12s   0.528%  ------ ++
++ basis_dot_function_with_box          : 6.716M     120.69s   0.573%  ------ ++ (!) overhead: ~   6.7%
++ density_on_dbl_grid                  :   139      138.76s   0.659%  ------ ++
++ edft_apply_smearing_operator         :    86      163.38s   0.776%  ------ ++
++ projectors_func_ovlp_box             :    40      171.42s   0.814%  ------ ++
++ sparse_product                       :  4534      208.24s   0.989%  ------ ++
++ ngwf_gradient_build_batch            :    84      238.45s   1.132%  ------ ++
++ xc_energy_potential                  :   137      248.19s   1.179%  ------ ++
++ restart_ngwfs_tightbox_output        :    18      254.29s   1.208%  ------ ++
++ function_ops_brappd_ketppd           :    78      268.07s   1.273%  ------ ++
++ density_fftbox_deposit_to_cell       : 14734      326.66s   1.551%  ------ ++
++ ngwf_cg_optimise                     :     3      336.39s   1.598%  ------ ++
++ density_batch_interp_deposit         :   556      347.01s   1.648%  ------ ++
++ cell_grid_deposit_box_real           : 33935      350.65s   1.665%  ------ ++
++ integrals_kinetic                    :    39      385.70s   1.832%  ------ ++
++ cell_grid_extract_box_real           : 13181      414.80s   1.970%  ------ ++
++ density_fftbox_interpolate_multiply  : 14734      426.29s   2.024%  ------ ++
++ ngwf_gradient_batch                  :    84      442.18s   2.100%  ------ ++
++ basis_add_function_to_box            : 19.17M     451.15s   2.143%  ------ ++ (!) overhead: ~   5.2%
++ potential_apply_to_ngwf_batch        :   436      511.77s   2.430%  ------ ++
++ properties_calculate                 :     1      519.60s   2.468%  ------ ++
++ fourier_apply_cell_backward          :  5618      964.90s   4.582%  20.265 ++
++ integrals_locpot_mat_els_batch       :   436     1098.41s   5.216%  ------ ++
++ fourier_apply_cell_forward           :  5070     1205.57s   5.725%  14.638 ++
++ density_batch_row_sums               :   556     1320.19s   6.270%  ------ ++
++ fourier_apply_box                    : 87777     1586.62s   7.535%  1.111k ++
++ ngwf_gradient_lnv                    :    21     1785.39s   8.479%  ------ ++
++ projectors_gradient_batch            :    84     2069.99s   9.831%  ------ ++
++ projectors_grad_precond_batch        :    84     3925.38s  18.642%  ------ ++
================================================================================
(!) WARNING: You're wasting precious cycles calling timer. 
             Each pair of timer_clock calls itself cost   1.21 microseconds!
Overhead of generating timer report: 
- 0 ms averaging over threads,
- 6 ms ensuring consistency across MPI ranks,
- 1 ms printing in order.

Job completed: 21-12-2021 04:28 (-0000)

