 +---------------------------------------------------------------+
 |                                                               |
 |        ####### #     # ####### ####### ####### ######         |
 |        #     # ##    # #          #    #       #     #        |
 |        #     # # #   # #          #    #       #     #        |
 |        #     # #  #  # #####      #    #####   ######         |
 |        #     # #   # # #          #    #       #              |
 |        #     # #    ## #          #    #       #              |
 |        ####### #     # #######    #    ####### #              |
 |                                                               |
 |        Linear-Scaling Ab Initio Total Energy Program          |
 |                                                               |
 |          Release for academic collaborators of ODG            |
 |                                             Version 6.1.3.6   |
 |                                                               |
 +---------------------------------------------------------------+
 |                                                               |
 |  Authors:                                                     |
 |  Jacek Dziedzic, Peter D. Haynes, Nicholas D. M. Hine,        |
 |  Arash A. Mostofi, Mike C. Payne and Chris-Kriton Skylaris    |
 |                                                               |
 |  Contributors:                                                |
 |  J. Aarons, L. Andrinopoulos, P. W. Avraam, R. A. Bell,       |
 |  A. Bhandari, G. A. Bramley, R. J. Charlton, S. J. Clark,     |
 |  R. J. Clements, G. C. Constantinescu, F. Corsetti,           |
 |  N. Corsini, O. Dieguez, S. M. M. Dubois, K. K. B. Duff,      |
 |  J. M. Escartin, A. Greco, H. Helal, Q. O. Hill, L. P. Lee,   |
 |  J.-H. Li, E. B. Linscott, G. Moynihan, D. D. O`Regan,        |
 |  O. K. Okan, M. J. S. Phipps, C. J. Pickard,                  |
 |  J. C. A. Prentice, M. I. J. Probert, L. E. Ratcliff,         |
 |  M. Robinson, A. Ruiz Serrano, J. S. Spencer, E. W. Tait,     |
 |  G. Teobaldi, D. Turban, V. Vitale, K. A. Wilkinson,          |
 |  C. Weber, J. C. Womack, N. Yeung and T. J. Zuehlsdorff       |
 |                                                               |
 |                                   Copyright (c) 2004-2021     |
 |                                                               |
 |  Please cite:                                                 |
 |  "The ONETEP linear-scaling density functional theory program"|
 |   J. Chem. Phys. 152(17) 174111 (2020)                        |
 |                                                               |
 |          in all publications arising from your use of ONETEP. |
 |                                                               |
 +---------------------------------------------------------------+
 |                                                               |
 |   ONETEP is based on developments described in the following  |
 |   publications:                                               |
 |                                                               |
 |  "Nonorthogonal generalized Wannier function pseudopotential  |
 |   plane-wave method".                                         |
 |   C.-K. Skylaris, A. A. Mostofi, P. D. Haynes, O. Dieguez,    |
 |   M. C. Payne.                                                |
 |   Phys. Rev. B 66 035119 (2002).                              |
 |                                                               |
 |  "Preconditioned iterative minimization for linear-scaling    |
 |   electronic structure calculations".                         |
 |   A. A. Mostofi, P. D. Haynes, C.-K. Skylaris, M. C. Payne.   |
 |   J. Chem. Phys. 119(17), pp.8842-8848 (2003).                |
 |                                                               |
 |  "Total-energy calculations on a real space grid with         |
 |   localized functions and a plane-wave basis".                |
 |   A. A. Mostofi, C.-K. Skylaris, P. D. Haynes, M. C. Payne.   |
 |   Comput. Phys. Commun. 147, pp.788-802 (2002).               |
 |                                                               |
 |  "Accurate kinetic energy evaluation in electronic structure  |
 |   calculations with localized functions on real space grids"  |
 |   C.-K. Skylaris, A. A. Mostofi, P. D. Haynes, C. J. Pickard, |
 |   M. C. Payne.                                                |
 |   Comput. Phys. Commun. 140, pp.315-322 (2001).               |
 |                                                               |
 |  "Accurate ionic forces and geometry optimization in linear-  |
 |   scaling density-functional theory with local orbitals"      |
 |   N. D. M. Hine, M. Robinson, P. D. Haynes, C.-K. Skylaris,   |
 |   M. C. Payne, and A. A. Mostofi.                             |
 |   Phys. Rev. B 83 195102 (2011).                              |
 |                                                               |
 +---------------------------------------------------------------+

Job started: 16-12-2021 08:45 (-0000)
 
Reading parameters from file "50/592nano.dat" ...... done

If your calculation crashes here, before "Checking processes and threads..."
is displayed, then your stack size is insufficient.
If so, use "ulimit -s unlimited" at runtime.
You can disable this check with "check_stack_size F".

Checking processes and threads...
   Determining the default number of threads...
      No default threads set at compilation time: defaulting to 1.
      OpenMP library call suggests 4 threads.
      Hybrid MPI-OpenMP compilation detected.
      Number of MPI processes > 1.
      OMP_NUM_THREADS environment variable present and
      its value matches the one obtained from the OpenMP library call.
      Using this value as default.
      Default threads: 4
      Default applies to threads_max and threads_num_fftboxes.
      Settings in the input file override this default.
   ... done

   Running with 160 MPI processes.
   There are 16 MPI processes running on the same node as the root process.
   Each MPI process is using: 
               1 threads for simulation cell FFTs.
               1 threads for parallel FFT box operations.
               4 threads for loops over batched FFT box operations.
               4 threads in other parallel regions.
... done

Basic input checks...
Resetting ngwf_cg_rotate to TRUE for EDFT calculations
... done

Reading geometry and species blocks from file "50/592nano.dat" ...    
  Number of PPD points along a3 set to 1.  This is 
  the default value, it may have been provided also in the input file.
... done
 Writing xyz coordinates to file "50/592nano.xyz" ... done


--------------------------------------------------------------------------------
---------------------------------- INPUT FILE ----------------------------------
--------------------------------------------------------------------------------

task : singlepoint                                                              
do_properties : true                                                            
dx_format T                                                                     
edft T                                                                          
edft_spin_fix 3                                                                 
output_detail VERBOSE                                                           
timings_level 3                                                                 
write_xyz T                                                                     
edft_update_scheme: pulay_mix                                                   
edft_ham_diis_size: 10                                                          
edft_trial_step: 0.1                                                            
xc_functional OPTPBE                                                            
cutoff_energy 830 eV                                                            
paw T                                                                           
geom_disp_tol 0.06 bohr                                                         
geom_energy_tol 6E-6 hartree                                                    
geom_force_tol 0.012 "ha/bohr"                                                  
geom_max_iter 25                                                                
EDFT_MAXIT 30                                                                   
pdos_max_l = 2                                                                  
dos_smear  0.1 eV                                                               
popn_calculate T                                                                
PDOS_PSEUDOATOMIC T                                                             
PDOS_REDUCE_SWS F                                                               
PDOS_CONSTRUCT_BASIS F                                                          
PDOS_LOWDIN T                                                                   
PDOS_ORTH_ATOM_BLOCKS F                                                         
PDOS_LCAO_OPTIMIZE F                                                            
pdos_optados_output T                                                           
homo_plot 0                                                                     
lumo_plot 0                                                                     
homo_dens_plot -1                                                               
lumo_dens_plot -1                                                               
%BLOCK SPECIES                                                                  
C C 6 4 9.0                                                                     
H H 1 1 9.0                                                                     
Li Li 3 5 9.0                                                                   
%ENDBLOCK SPECIES                                                               
%BLOCK SPECIES_POT                                                              
C "~/pp/paw/c_pbe_abinit.paw"                                                   
H "~/pp/paw/h_pbe_abinit.paw"                                                   
Li "~/pp/paw/li_pbe_abinit.paw"                                                 
%ENDBLOCK SPECIES_POT                                                           
%BLOCK SPECIES_ATOMIC_SET                                                       
C "SOLVE conf=2s2 2p2"                                                          
H "SOLVE conf=1s1"                                                              
Li "SOLVE conf=1s2 2s1 2p0"                                                     
%ENDBLOCK SPECIES_ATOMIC_SET                                                    
%BLOCK SPECIES_LDOS_GROUPS                                                      
C                                                                               
H                                                                               
Li                                                                              
%ENDBLOCK SPECIES_LDOS_GROUPS                                                   
%BLOCK LATTICE_CART                                                             
94.486315650000      0.000000000000       0.000000000000                        
0.000000000000       94.486315650000      0.000000000000                        
0.000000000000       0.000000000000       94.486315650000                       
%ENDBLOCK LATTICE_CART                                                          
%BLOCK POSITIONS_ABS                                                            
C 42.852973 41.444796 31.471964                                                 
C 38.776819 43.743958 31.606506                                                 
C 41.525054 39.128390 30.988799                                                 
C 45.554970 41.466641 31.512576                                                 
C 37.451708 41.417610 31.176787                                                 
C 37.411487 46.070126 31.754958                                                 
C 54.926885 48.588660 31.208032                                                 
C 54.896466 53.269373 31.220427                                                 
C 53.605764 46.241329 31.319271                                                 
C 38.628665 57.816549 31.853328                                                 
C 42.648156 60.212968 31.730591                                                 
C 37.313157 55.455671 31.909030                                                 
C 53.533454 55.602443 31.366278                                                 
C 45.354656 60.231740 31.705691                                                 
C 46.933322 39.156445 31.178896                                                 
C 41.482116 43.766012 31.719539                                                 
C 34.713193 46.049736 31.541256                                                 
C 50.952593 41.540808 31.226863                                                 
C 53.566420 50.919312 31.403525                                                 
C 34.672360 50.727860 31.678466                                                 
C 41.332344 57.848693 31.946293                                                 
C 38.818078 39.126762 30.792853                                                 
C 54.973988 43.924402 31.048417                                                 
C 49.586745 43.852013 31.563617                                                 
C 37.359825 50.759635 31.957220                                                 
C 49.455129 57.920896 31.706098                                                 
C 34.617069 55.413627 31.635127                                                 
C 57.604909 48.615442 30.779100                                                 
C 50.768379 60.266718 31.375307                                                 
C 57.560419 53.285252 30.710302                                                 
C 37.247833 60.130411 31.466382                                                 
C 54.832801 57.949577 31.027997                                                 
C 50.838211 55.589393 31.692303                                                 
C 46.746096 57.902808 31.871333                                                 
C 41.260672 62.512603 31.338660                                                 
C 46.673088 62.563939 31.327292                                                 
C 46.882834 43.818077 31.714505                                                 
C 50.912401 46.209057 31.585787                                                 
C 38.734943 48.424009 31.968139                                                 
C 38.686085 53.125799 32.045155                                                 
C 49.617804 39.204723 31.047545                                                 
C 33.364150 48.368515 31.477404                                                 
C 42.910463 36.809613 30.633384                                                 
C 53.643826 41.595605 30.937547                                                 
C 34.745175 41.398486 31.029120                                                 
C 33.321228 53.064459 31.456851                                                 
C 45.607191 36.820688 30.779186                                                 
C 33.386922 43.698203 31.261103                                                 
C 58.905789 50.948835 30.446154                                                 
C 53.448962 60.263436 31.031127                                                 
C 49.364334 62.571255 31.167697                                                 
C 38.556047 62.465037 31.158921                                                 
C 50.874533 50.899215 31.710856                                                 
C 42.715691 55.519516 32.083292                                                 
C 42.810824 46.118077 31.940221                                                 
C 57.669827 43.954312 30.769900                                                 
C 58.974146 46.286308 30.573231                                                 
C 33.231426 57.730964 31.408037                                                 
C 34.529860 60.074848 31.271490                                                 
C 58.857884 55.647038 30.308150                                                 
C 49.507495 53.234371 31.850562                                                 
C 45.426126 55.545167 32.039129                                                 
C 57.496271 57.971461 30.480343                                                 
C 49.545637 48.540027 31.782549                                                 
C 41.391612 53.153144 32.129897                                                 
C 42.582154 64.840897 30.905297                                                 
C 41.439205 48.453517 32.053097                                                 
C 45.516496 46.146792 31.911634                                                 
C 45.282010 64.866397 30.916845                                                 
C 37.478464 36.788182 30.184636                                                 
C 46.804913 53.209848 32.026347                                                 
C 42.767010 50.816459 32.123791                                                 
C 46.845754 48.509715 31.957970                                                 
C 41.567826 34.468565 30.083655                                                 
C 33.407032 39.081323 30.533683                                                 
C 50.984818 36.888669 30.565825                                                 
C 55.018158 39.298632 30.434085                                                 
C 30.672437 48.335769 31.033605                                                 
C 46.985851 34.496555 30.390434                                                 
C 30.642462 53.046298 30.929064                                                 
C 30.693436 43.669010 31.051908                                                 
C 45.475529 50.845087 32.074262                                                 
C 61.581880 50.958771 29.754597                                                 
C 38.884582 34.510625 29.929151                                                 
C 34.805079 36.822782 30.061088                                                 
C 37.146585 64.782591 30.616976                                                 
C 59.043424 41.634234 30.552346                                                 
C 54.747843 62.602092 30.489683                                                 
C 50.666349 64.898990 30.610395                                                 
C 61.640391 46.287001 30.033386                                                 
C 30.542165 57.697716 31.158187                                                 
C 61.528402 55.654430 29.638461                                                 
C 33.129269 62.375221 30.836432                                                 
C 41.185605 67.161074 30.418401                                                 
C 58.781078 60.327280 29.971307                                                 
C 46.613450 67.202571 30.403486                                                 
C 49.667280 34.586373 30.398381                                                 
C 29.402081 46.005986 30.906648                                                 
C 62.889752 48.632459 29.578190                                                 
C 53.682384 36.930664 30.490481                                                 
C 62.840353 53.315646 29.445275                                                 
C 57.673345 39.346993 30.387573                                                 
C 29.305155 50.677388 30.975166                                                 
C 42.990781 32.186171 29.866658                                                 
C 34.474441 64.684347 30.505612                                                 
C 38.486448 67.103881 30.399265                                                 
C 29.306116 55.343896 30.907193                                                 
C 30.721175 39.082093 30.679654                                                 
C 45.640046 32.209455 29.988698                                                 
C 29.403450 41.324731 30.928729                                                 
C 57.371176 62.613836 30.085949                                                 
C 53.375267 64.935445 30.594566                                                 
C 49.301356 67.160941 30.334190                                                 
H 37.873696 32.736960 29.528069                                                 
H 33.783266 35.061608 29.611593                                                 
C 62.990148 43.959287 30.153189                                                 
C 61.720883 41.692245 30.432186                                                 
C 62.762762 58.027988 29.300055                                                 
C 29.186082 60.017772 31.126823                                                 
C 30.442066 62.299012 30.972804                                                 
C 61.402204 60.300341 29.396213                                                 
C 42.561242 69.443450 30.056645                                                 
C 45.218836 69.456385 30.003196                                                 
H 64.868413 53.328271 28.972012                                                 
H 64.912966 48.631887 29.072328                                                 
H 50.713922 32.841405 29.894973                                                 
H 41.968317 30.402071 29.556108                                                 
H 29.704887 37.267928 30.530871                                                 
H 27.354823 45.978324 30.444386                                                 
H 37.433941 68.855782 29.990378                                                 
H 33.409977 66.449332 30.193943                                                 
H 58.727739 37.555791 30.152374                                                 
H 27.235052 55.324766 30.627991                                                 
H 46.712259 30.431731 29.842386                                                 
H 54.666451 35.253546 29.714145                                                 
H 27.321059 41.325026 30.974060                                                 
H 27.385341 50.661064 30.139834                                                 
H 58.310004 64.389717 29.509725                                                 
H 50.302657 68.906105 29.766817                                                 
H 65.064170 43.988234 29.943800                                                 
H 62.764933 39.891445 30.480337                                                 
H 54.286866 66.601534 29.710847                                                 
H 64.797626 58.039361 28.867692                                                 
H 29.388878 64.094008 30.903140                                                 
H 27.106025 59.963691 31.176081                                                 
H 41.495932 71.207179 29.770823                                                 
H 62.369929 62.109063 29.052269                                                 
H 46.246967 71.233751 29.663798                                                 
C 44.228034 39.037844 37.477651                                                 
C 36.056374 43.707648 37.433116                                                 
C 40.146734 41.390300 37.496698                                                 
C 41.525085 39.063821 37.433939                                                 
C 49.641079 39.046893 37.197098                                                 
C 37.444364 41.393211 37.343075                                                 
C 48.269211 41.403241 37.382799                                                 
C 53.702196 41.424931 37.148006                                                 
C 45.573504 41.390778 37.535358                                                 
C 52.321705 43.755853 37.141286                                                 
C 36.027700 48.378163 37.713531                                                 
C 37.394662 46.050985 37.656978                                                 
C 45.585346 36.686478 37.382533                                                 
C 35.982899 53.067431 37.905025                                                 
C 33.315407 48.362545 37.588449                                                 
C 53.645077 46.107881 37.005093                                                 
C 52.375940 39.066544 37.154699                                                 
C 33.274744 53.054428 37.848131                                                 
C 56.369636 46.134289 36.908365                                                 
C 33.348720 43.686637 37.259817                                                 
C 49.596483 43.751624 37.355134                                                 
C 37.324947 55.406569 37.939390                                                 
C 48.297557 36.689609 37.285115                                                 
C 41.486734 43.728469 37.666849                                                 
C 37.370276 50.725792 37.873211                                                 
C 35.960015 57.736750 37.860801                                                 
C 56.423343 41.433737 37.062171                                                 
C 56.323613 50.852486 36.940907                                                 
C 53.609916 50.835003 37.100436                                                 
C 53.576125 55.553565 37.257880                                                 
C 31.924808 50.703216 37.765059                                                 
C 45.440680 60.157694 37.736340                                                 
C 41.390999 57.768176 37.874770                                                 
C 57.738740 43.788309 36.863207                                                 
C 31.980525 46.006686 37.398366                                                 
C 52.207308 57.867796 37.444509                                                 
C 44.199602 43.729944 37.671979                                                 
C 48.136833 60.185881 37.670197                                                 
C 40.109564 46.059701 37.749011                                                 
C 40.020184 60.094113 37.760974                                                 
C 49.509248 57.846446 37.642458                                                 
C 52.262602 48.477213 37.063506                                                 
C 57.690908 48.502297 36.833634                                                 
C 40.045672 55.420762 37.955510                                                 
C 56.307490 55.578466 37.055784                                                 
C 52.236051 53.179097 37.333497                                                 
C 44.099246 57.796464 37.846690                                                 
C 40.182074 36.714533 37.260874                                                 
C 31.895189 55.400466 37.767100                                                 
C 44.073566 62.485544 37.615959                                                 
C 36.080414 39.040859 37.145711                                                 
C 33.245374 57.730334 37.696600                                                 
C 37.321639 60.068390 37.804850                                                 
C 57.659117 53.213211 36.941100                                                 
C 41.361959 62.436039 37.565873                                                 
C 48.238259 46.088401 37.525475                                                 
C 40.068198 50.739693 37.919999                                                 
C 48.178662 55.488351 37.742835                                                 
C 44.218665 34.292097 37.371860                                                 
C 53.770132 36.701620 37.316104                                                 
C 53.551420 60.239566 37.358695                                                 
C 49.564448 48.459704 37.428315                                                 
C 49.464343 62.549841 37.582335                                                 
C 41.416853 53.094296 37.956848                                                 
C 45.466077 55.466020 37.870367                                                 
C 49.538208 53.156691 37.613018                                                 
C 45.529780 46.083347 37.707519                                                 
C 41.449446 48.404100 37.856946                                                 
C 31.974708 41.336644 37.004525                                                 
C 37.469567 36.718012 37.139112                                                 
C 49.670826 34.260200 37.309302                                                 
C 41.517823 34.369876 37.205645                                                 
C 57.650279 57.923466 37.114245                                                 
C 57.860981 39.073067 37.113571                                                 
C 33.387194 39.040106 37.132315                                                 
C 45.410613 64.848451 37.545833                                                 
C 44.127927 53.111222 37.914137                                                 
C 48.199910 50.795995 37.667146                                                 
C 29.171274 50.675024 37.924794                                                 
C 44.158965 48.418107 37.820698                                                 
C 60.417347 48.512799 36.745741                                                 
C 52.165983 62.571466 37.460342                                                 
C 45.500555 50.775499 37.833653                                                 
C 60.476354 43.797261 36.666235                                                 
C 29.220768 45.950221 37.553794                                                 
C 56.273001 60.256654 37.280174                                                 
C 56.503433 36.714712 37.364053                                                 
C 29.132079 55.415881 37.692734                                                 
C 48.112138 64.878760 37.600502                                                 
C 60.364564 53.236588 36.813260                                                 
C 52.395451 34.347867 37.543585                                                 
C 35.952077 62.396702 37.673904                                                 
C 31.852126 60.060110 37.412064                                                 
C 40.005742 64.781741 37.376402                                                 
C 45.583430 31.972270 37.150546                                                 
C 27.808999 53.017348 37.977684                                                 
C 61.753242 46.178452 36.767215                                                 
C 27.897713 48.299271 37.990655                                                 
C 61.726009 50.888074 36.601412                                                 
C 48.290203 31.982628 37.130774                                                 
C 29.300965 41.351716 36.909934                                                 
C 33.229899 62.407388 37.614218                                                 
C 60.503434 39.155829 36.695378                                                 
C 37.301369 64.726521 37.362114                                                 
C 60.410683 57.965645 36.983032                                                 
H 36.440753 34.889789 37.264442                                                 
H 40.448668 32.570313 37.202651                                                 
C 61.789330 41.473848 36.467425                                                 
C 44.042167 67.236370 37.509661                                                 
H 32.338368 37.220646 37.194842                                                 
C 61.699274 55.598911 36.655730                                                 
C 27.950481 43.614667 37.296563                                                 
C 41.340916 67.134892 37.330768                                                 
H 57.529230 34.924044 37.002493                                                 
C 27.850102 57.740216 37.470787                                                 
C 29.189501 60.015378 37.322158                                                 
H 53.450837 32.537386 37.622890                                                 
C 53.524226 64.962442 37.669561                                                 
H 44.536721 30.171436 37.103031                                                 
H 25.724859 52.998759 37.970448                                                 
C 57.660245 62.653746 37.428955                                                 
C 49.463069 67.295796 37.705386                                                 
H 63.841188 46.181291 36.952449                                                 
H 28.289331 39.553291 36.643370                                                 
H 25.847512 48.252006 38.375292                                                 
H 63.828956 50.900640 36.734048                                                 
H 49.310072 30.167684 37.026653                                                 
H 61.561431 37.365651 36.581537                                                 
H 32.215488 64.178093 37.110237                                                 
H 36.215395 66.526207 37.160573                                                 
H 63.849071 41.502123 36.186990                                                 
H 63.791355 55.602186 36.471718                                                 
H 25.869066 43.584014 37.388850                                                 
H 25.768611 57.747705 37.394284                                                 
C 61.697732 60.325331 36.909712                                                 
H 40.274022 68.934840 37.434426                                                 
C 45.390985 69.566236 37.459675                                                 
H 28.169521 61.817840 37.097299                                                 
C 52.153058 67.252001 37.838644                                                 
C 56.221323 64.928377 37.795011                                                 
C 60.332360 62.654578 37.180397                                                 
C 48.075390 69.587090 37.619617                                                 
H 63.781896 60.338033 36.846466                                                 
H 44.320260 71.352725 37.514781                                                 
H 53.181594 69.036703 38.165829                                                 
H 57.238726 66.717961 38.126289                                                 
H 61.362431 64.461528 37.245959                                                 
H 49.094358 71.398810 37.725084                                                 
H 28.523454 38.007089 44.129112                                                 
H 40.329906 30.031747 44.525511                                                 
H 32.452206 35.319538 43.748782                                                 
H 36.355739 32.637003 44.077462                                                 
H 45.063582 29.788118 44.647178                                                 
H 26.429235 42.312502 44.182812                                                 
C 41.478347 31.769570 44.397407                                                 
C 29.697360 39.726056 44.114425                                                 
H 61.927886 37.904725 43.475438                                                 
C 33.610046 37.040994 43.998960                                                 
C 37.518996 34.367405 43.988061                                                 
C 44.109865 31.631850 44.485728                                                 
H 49.180293 31.824241 44.402251                                                 
H 64.585502 41.904359 43.367671                                                 
C 28.504364 42.163871 44.189953                                                 
H 65.554029 56.048713 43.765440                                                 
H 26.830464 47.077267 44.146166                                                 
H 27.801762 61.002790 44.782700                                                 
H 53.486592 33.913266 44.064515                                                 
H 57.669488 35.885341 44.052076                                                 
H 30.442408 64.976493 44.694238                                                 
H 27.232253 51.710499 44.806247                                                 
H 65.262180 51.311420 43.492812                                                 
H 43.223805 71.183553 44.443163                                                 
H 63.457298 60.306534 44.154601                                                 
H 27.534542 56.275947 45.033583                                                 
H 64.894296 46.639032 43.305018                                                 
C 32.355270 39.471012 44.080575                                                 
C 40.253057 34.135312 44.206116                                                 
H 48.011873 70.839124 44.528039                                                 
C 36.316480 36.794810 44.061188                                                 
H 38.944764 69.133214 44.271664                                                 
C 61.025567 39.776185 43.561896                                                 
C 62.512778 42.040107 43.471903                                                 
H 34.714103 67.118829 44.524786                                                 
C 48.286006 33.711710 44.240716                                                 
C 63.473183 56.177444 43.823439                                                 
C 28.898400 46.883120 44.407735                                                 
H 59.523540 62.931992 44.506508                                                 
C 29.880735 60.871169 44.730830                                                 
C 45.601401 33.844207 44.380129                                                 
H 51.881468 68.133856 44.336280                                                 
H 55.665056 65.495277 44.696604                                                 
C 29.992972 44.414289 44.176705                                                 
C 31.377191 63.115906 44.606896                                                 
C 52.514537 35.773483 43.923229                                                 
C 62.298967 58.574709 44.038487                                                 
C 56.764536 37.752874 43.735970                                                 
C 44.132953 69.311336 44.427685                                                 
C 29.327021 51.536364 44.766733                                                 
C 63.177192 51.458511 43.550097                                                 
C 29.612178 56.166316 44.783098                                                 
C 62.819183 46.771313 43.418319                                                 
C 46.830904 69.126750 44.526726                                                 
C 49.794247 35.909841 43.948851                                                 
C 58.330331 39.943731 43.584783                                                 
C 39.860088 67.262559 44.234920                                                 
C 54.075554 37.979470 43.589187                                                 
C 30.434664 49.106863 44.528130                                                 
C 61.386824 44.464654 43.487302                                                 
C 35.619000 65.233579 44.393196                                                 
C 41.746394 36.461729 44.103604                                                 
C 62.017163 53.935109 43.789514                                                 
C 33.935934 41.755606 44.059566                                                 
C 31.039202 58.446601 44.542003                                                 
C 45.395786 50.375100 43.614175                                                 
C 30.814550 53.761824 44.863465                                                 
C 37.844557 39.087466 44.039976                                                 
C 61.692188 49.200927 43.513796                                                 
C 46.914001 52.621120 43.658340                                                 
C 58.382075 61.182755 44.370643                                                 
C 42.699122 50.567437 43.650377                                                 
C 46.574307 47.930369 43.572986                                                 
C 44.430264 36.300149 44.119999                                                 
C 34.048221 62.985035 44.406338                                                 
C 50.687300 66.423185 44.326714                                                 
C 42.585716 67.145058 44.301754                                                 
C 32.747757 44.212469 44.106991                                                 
C 54.500982 63.768802 44.545521                                                 
C 59.622805 58.772846 44.171822                                                 
C 45.736674 55.062406 43.702081                                                 
C 49.610956 52.424101 43.731852                                                 
C 41.188493 48.308972 43.655845                                                 
C 45.068581 45.675656 43.558280                                                 
C 38.320706 65.066194 44.238612                                                 
C 41.523802 53.008647 43.739807                                                 
C 49.273911 47.730980 43.676836                                                 
C 48.027661 66.692077 44.393207                                                 
C 40.552518 38.905878 43.950812                                                 
C 36.637131 41.546858 43.990735                                                 
C 42.364724 45.862161 43.606742                                                 
C 43.036098 55.263231 43.750097                                                 
C 50.801295 49.985159 43.786093                                                 
C 48.613095 38.374008 43.854196                                                 
C 55.702074 61.379381 44.452047                                                 
C 33.152457 48.903532 44.313763                                                 
C 52.853280 40.429791 43.565641                                                 
C 57.104486 42.402866 43.596576                                                 
C 51.846273 64.017737 44.171911                                                 
C 58.610062 44.678482 43.644023                                                 
C 45.918236 38.548534 43.884507                                                 
C 46.249672 43.237071 43.581405                                                 
C 38.496086 48.500215 43.790039                                                 
C 34.286594 46.451484 44.076178                                                 
C 33.493318 53.574246 44.450250                                                 
C 50.462152 45.275629 43.699355                                                 
C 38.831884 53.202972 43.877489                                                 
C 51.131809 54.657862 43.855006                                                 
C 40.852086 43.620213 43.697713                                                 
C 50.142907 40.607714 43.668070                                                 
C 47.264887 57.301125 43.769422                                                 
C 33.782072 58.256869 44.363465                                                 
C 59.269884 54.090176 43.894596                                                 
C 42.046787 41.160076 43.752458                                                 
C 38.161025 43.807143 43.819549                                                 
C 48.942743 43.042995 43.603253                                                 
C 44.730797 40.981206 43.698353                                                 
C 58.944476 49.400546 43.698202                                                 
C 37.333063 50.951671 43.934480                                                 
C 35.280986 60.513849 44.280537                                                 
C 36.983323 46.245931 43.864742                                                 
C 34.653206 51.147043 44.227637                                                 
C 54.385542 42.636142 43.625802                                                 
C 53.515712 49.760360 43.964035                                                 
C 49.961455 57.089188 43.840081                                                 
C 43.768021 64.617481 44.239443                                                 
C 41.865621 57.699475 43.870718                                                 
C 58.075233 56.510483 44.059332                                                 
C 34.967918 55.831467 44.256812                                                 
C 53.193687 45.065718 43.821250                                                 
C 57.440729 47.111242 43.788085                                                 
C 39.496539 62.575687 44.143601                                                 
C 37.657310 55.648813 44.012789                                                 
C 57.762829 51.838165 43.891927                                                 
C 54.698467 47.319556 43.947806                                                 
C 46.479764 64.418883 44.212662                                                 
C 53.843912 54.441353 44.029365                                                 
C 55.047488 52.020606 44.053698                                                 
C 39.153845 57.895951 43.983035                                                 
C 46.084635 59.735679 43.874710                                                 
C 37.972959 60.328203 44.121075                                                 
C 54.177820 59.128419 44.154667                                                 
C 43.396804 59.927621 43.939998                                                 
C 50.306905 61.753778 44.030114                                                 
C 42.235446 62.383613 44.114581                                                 
C 51.485365 59.332368 44.003647                                                 
C 55.373953 56.703883 44.073063                                                 
C 47.619912 61.978403 44.007377                                                 
H 43.862836 29.850759 50.270240                                                 
H 28.052495 39.495129 51.718174                                                 
H 48.599455 29.699248 50.290427                                                 
H 60.894051 36.474685 51.221068                                                 
H 63.337753 40.534652 51.411954                                                 
H 25.760232 43.637369 51.963542                                                 
H 28.488686 61.706515 52.118379                                                 
H 26.010214 57.646604 52.091154                                                 
H 36.094911 34.791815 51.605794                                                 
H 39.983624 32.309343 50.854146                                                 
H 32.104605 37.143401 51.694595                                                 
H 63.546745 49.830639 51.180850                                                 
H 36.660998 66.106623 52.043299                                                 
H 63.765841 59.072970 51.953444                                                 
H 44.797685 70.567231 52.557568                                                 
H 63.457561 45.213171 51.157021                                                 
H 32.609046 63.906055 52.082569                                                 
H 52.693587 31.924922 50.880027                                                 
H 56.790976 34.199752 51.079789                                                 
H 63.641840 54.432741 51.555339                                                 
H 61.489416 63.222712 52.273012                                                 
H 40.693347 68.360335 52.073896                                                 
H 49.534115 70.509746 52.439636                                                 
H 25.915669 52.986413 51.902671                                                 
H 25.892246 48.329297 52.269810                                                 
C 44.982390 31.605132 50.238865                                                 
C 47.595860 31.523560 50.283858                                                 
C 29.098091 41.285535 51.533797                                                 
C 59.920020 38.299359 51.001030                                                 
C 27.816225 43.593369 51.648246                                                 
C 61.277282 40.568673 51.123697                                                 
C 28.070577 57.627126 51.797530                                                 
C 29.451291 59.884021 51.824661                                                 
H 57.522812 65.667728 52.156258                                                 
H 53.564940 68.122496 52.075618                                                 
C 41.062399 34.097007 50.644856                                                 
C 37.060546 36.472341 50.804507                                                 
C 33.102163 38.883999 51.089107                                                 
C 61.708970 59.173294 51.646525                                                 
C 45.812306 68.803674 52.125253                                                 
C 60.445577 61.482426 51.816415                                                 
C 51.713753 33.757492 50.674675                                                 
C 48.455118 68.776568 52.041349                                                 
C 55.806476 36.019177 50.831523                                                 
C 61.396729 45.259197 50.852004                                                 
C 61.527328 49.901144 50.635716                                                 
C 33.547225 62.145261 51.448631                                                 
C 37.614464 64.373727 51.358698                                                 
C 27.900953 48.291255 51.716101                                                 
C 27.965854 52.950796 51.523378                                                 
C 61.629227 54.528694 50.992681                                                 
C 41.695642 66.585773 51.644107                                                 
C 43.699575 33.952317 50.286754                                                 
C 49.028967 33.794005 50.409741                                                 
C 31.744797 41.199206 51.115431                                                 
C 57.237076 38.289744 50.765445                                                 
C 29.139987 45.934272 51.432908                                                 
C 60.043842 42.943732 50.829882                                                 
C 29.301290 55.254790 51.412716                                                 
C 39.776252 36.418358 50.689437                                                 
C 32.106320 59.884568 51.387826                                                 
C 35.738735 38.824836 50.795730                                                 
C 53.134171 36.028989 50.658136                                                 
C 56.462781 63.934986 51.698480                                                 
C 52.495978 66.385705 51.664286                                                 
C 29.228721 50.617350 51.431975                                                 
C 45.372037 50.311523 49.353507                                                 
C 60.382598 56.903141 51.084743                                                 
C 60.150413 47.596996 50.696962                                                 
C 44.379160 66.581662 51.628150                                                 
C 36.200840 62.100845 51.221194                                                 
C 60.259475 52.270132 50.699540                                                 
C 40.300375 64.350915 51.355099                                                 
C 57.768910 61.635045 51.464664                                                 
C 49.818876 66.490136 51.598288                                                 
C 44.072052 52.684279 49.450763                                                 
C 48.081895 50.249894 49.375626                                                 
C 43.964707 47.994624 49.354922                                                 
C 53.824586 64.056702 51.472504                                                 
C 45.482335 54.995843 49.551781                                                 
C 49.490288 52.564088 49.478855                                                 
C 45.088502 36.257698 50.033316                                                 
C 41.361779 52.732288 49.562207                                                 
C 49.378549 47.872944 49.403747                                                 
C 47.759790 36.180308 50.089559                                                 
C 33.115873 43.524601 50.703739                                                 
C 41.259025 48.049449 49.466495                                                 
C 45.269073 45.618938 49.349755                                                 
C 31.820064 45.878260 50.855353                                                 
C 55.948130 40.687552 50.388283                                                 
C 57.341805 42.997576 50.400686                                                 
C 31.995158 55.218743 50.925904                                                 
C 33.386095 57.522898 50.878840                                                 
C 48.194058 54.935824 49.567854                                                 
C 39.956201 50.418334 49.585025                                                 
C 47.976147 45.553185 49.375943                                                 
C 51.835714 38.431140 50.218506                                                 
C 41.124790 38.715680 50.141284                                                 
C 37.110073 41.127568 50.257680                                                 
C 57.686975 57.001307 50.662643                                                 
C 31.908706 50.557730 50.797752                                                 
C 45.700284 64.255207 51.051338                                                 
C 57.443331 47.674216 50.232681                                                 
C 56.390030 59.350398 50.848279                                                 
C 37.484543 59.760256 50.612227                                                 
C 48.395770 64.204126 51.060542                                                 
C 57.561088 52.354881 50.233822                                                 
C 41.598491 62.007967 50.736973                                                 
C 40.060400 55.095097 49.787072                                                 
C 44.183458 57.358052 49.795149                                                 
C 52.196705 52.496174 49.626055                                                 
C 52.078657 47.804583 49.569860                                                 
C 39.856554 45.733615 49.599824                                                 
C 49.165165 38.490471 49.910281                                                 
C 43.872330 43.305099 49.465598                                                 
C 43.792037 38.634438 49.870904                                                 
C 35.793905 43.471561 50.217265                                                 
C 53.247012 40.742712 50.072447                                                 
C 33.192826 48.202867 50.522592                                                 
C 33.277514 52.861543 50.539120                                                 
C 39.788121 41.062818 49.952959                                                 
C 41.472137 57.400696 49.918270                                                 
C 56.056279 45.366599 50.075008                                                 
C 53.484694 50.120774 49.680968                                                 
C 41.167870 43.365104 49.609853                                                 
C 36.076079 57.483683 50.443588                                                 
C 52.408966 61.765542 50.868103                                                 
C 37.254444 50.463328 49.854315                                                 
C 56.176658 50.050735 49.989835                                                 
C 49.276520 43.177688 49.503056                                                 
C 40.175643 59.736950 50.364084                                                 
C 49.603670 57.238222 49.836827                                                 
C 56.290630 54.714943 50.189330                                                 
C 44.295551 61.979410 50.569905                                                 
C 45.181620 40.936026 49.574688                                                 
C 37.162280 45.782921 49.890213                                                 
C 37.357340 55.134011 50.046434                                                 
C 53.370118 45.426675 49.731486                                                 
C 47.878242 40.860184 49.588067                                                 
C 35.857750 48.150356 50.032806                                                 
C 51.971175 43.112905 49.704070                                                 
C 35.957400 52.823047 50.094648                                                 
C 45.596171 59.653525 50.088864                                                 
C 53.700803 59.436683 50.512881                                                 
C 49.708510 61.856043 50.633653                                                 
C 53.601050 54.801288 49.881540                                                 
C 48.303836 59.592833 50.116503                                                 
C 52.306730 57.165072 50.012474                                                 
Li 59.866895 41.408457 40.105099                                                
Li 31.871571 60.652681 41.221799                                                
Li 30.559283 42.061620 40.754221                                                
Li 46.426482 67.606761 40.862855                                                
Li 59.787945 60.232273 40.492344                                                
Li 54.385001 62.379284 40.810349                                                
Li 41.202088 64.934399 40.993566                                                
Li 39.489075 35.571718 40.750806                                                
Li 29.399684 54.068315 41.350841                                                
Li 30.936926 47.888516 40.885295                                                
Li 51.018077 37.724460 40.605152                                                
Li 62.646141 53.344687 40.005638                                                
Li 62.681690 52.515200 47.501169                                                
Li 59.643865 46.986528 40.300041                                                
Li 35.178364 39.219376 40.877251                                                
Li 46.801226 33.797543 40.551771                                                
Li 55.231622 35.258742 40.769036                                                
Li 34.813113 64.829037 40.619996                                                
Li 56.287754 64.243736 33.779391                                                
Li 60.311242 47.021069 46.888984                                                
Li 51.411869 67.043989 33.872594                                                
Li 51.772267 64.723038 47.992260                                                
Li 34.797010 64.371772 48.234032                                                
Li 40.987362 64.859254 47.547718                                                
Li 59.746229 59.815463 48.037258                                                
Li 46.702081 67.631906 48.280364                                                
Li 28.237833 49.114191 47.852175                                                
Li 59.710248 40.750244 47.311292                                                
Li 33.997987 36.656199 47.918874                                                
Li 27.941421 48.019581 34.005811                                                
Li 44.186819 68.012144 33.667230                                                
Li 39.864803 36.099241 33.537867                                                
Li 60.957956 58.628198 33.103443                                                
Li 29.862786 43.144221 47.951262                                                
Li 52.085332 34.488058 33.597342                                                
Li 29.170098 53.168467 34.371561                                                
Li 62.680249 48.115041 33.472839                                                
Li 54.873836 37.892618 47.335415                                                
Li 30.008781 58.131313 48.267993                                                
Li 35.191838 63.065758 34.060743                                                
Li 44.364888 33.628034 33.532930                                                
Li 34.655701 37.153855 33.930310                                                
Li 55.990851 37.967051 33.801327                                                
Li 55.259988 53.316011 40.336876                                                
Li 61.278251 53.325857 33.117966                                                
Li 38.613254 34.479698 47.662238                                                
Li 52.321917 47.466349 40.718053                                                
Li 39.010165 66.844751 34.201828                                                
Li 51.030774 33.822802 47.017042                                                
Li 49.492080 56.740920 40.743480                                                
%ENDBLOCK POSITIONS_ABS                                                         

--------------------------------------------------------------------------------
-------------------------------- END INPUT FILE --------------------------------
--------------------------------------------------------------------------------


 
<<<<<<<<<<<<<<<<<<<<<<<<<<<<<<<<< Full system >>>>>>>>>>>>>>>>>>>>>>>>>>>>>>>>>>
<<<<<<<<<<<<<<<<<<<<<<<<<<< PAW Dataset information >>>>>>>>>>>>>>>>>>>>>>>>>>>
File: ~/pp/paw/c_pbe_abinit.paw; rc = 1.25 bohr; shape type =  3; rshape = 1.25 bohr;
  Atomic number:  6;  ionic charge:  4.000000
    Partial Wave 1: l = 0
    Partial Wave 2: l = 0
    Partial Wave 3: l = 1
    Partial Wave 4: l = 1
  Core charge supplied for Nonlinear Core Corrections
File: ~/pp/paw/h_pbe_abinit.paw; rc = 0.90 bohr; shape type =  3; rshape = 0.90 bohr;
  Atomic number:  1;  ionic charge:  1.000000
    Partial Wave 1: l = 0
    Partial Wave 2: l = 0
File: ~/pp/paw/li_pbe_abinit.paw; rc = 1.42 bohr; shape type =  3; rshape = 1.42 bohr;
  Atomic number:  3;  ionic charge:  3.000000
    Partial Wave 1: l = 0
    Partial Wave 2: l = 0
    Partial Wave 3: l = 0
    Partial Wave 4: l = 1
    Partial Wave 5: l = 1
<<<<<<<<<<<<<<<<<<<<<<<<<<<<<<<<<<<<<<< >>>>>>>>>>>>>>>>>>>>>>>>>>>>>>>>>>>>>>>

-------------------------- Atom counting information ---------------------------
Symbol    Natoms    Nngwfs    Nprojs
  C        484      1936      3872
  H        108       108       216
  Li        50       250       450
.......   ......    ......    ......
Totals:    642      2294      4538
--------------------------------------------------------------------------------

=============================== PSINC grid sizes ===============================
                      Simulation cell:  189 x 189 x 189
                              FFT-box:  117 x 117 x 117
                                  PPD:    7 x   7 x   1
Grid space d1=  0.499927596032a0 (KE cutoff=  30.39413Eh = 827.06648eV)
Grid space d2=  0.499927596032a0 (KE cutoff=  30.39413Eh = 827.06648eV)
Grid space d3=  0.499927596032a0 (KE cutoff=  30.39413Eh = 827.06648eV)
================================================================================
  
WARNING in cell_grid_distribute:
Average of less than one 23-slab per proc, so workload cannot be
equally balanced between procs.

********************* Fourier parallelisation information **********************
       Coarse grid (whole simulation cell) dimensions:    189   189   189
          Real-space ('12') slabs/proc (min max mean):      1     2     1
         Recip-space ('23') slabs/proc (min max mean):      0     1     0
********************************************************************************

********************* Fourier parallelisation information **********************
       Double grid (whole simulation cell) dimensions:    378   378   378
          Real-space ('12') slabs/proc (min max mean):      2     3     2
         Recip-space ('23') slabs/proc (min max mean):      1     2     1
********************************************************************************

Atom SCF Calculation for C  : Z (AE atom) =   6 : Z (PS atom) =   4
Config String: 2s2 2p2
Orbitals (num,occ):  2     2.00 2.00
Orbitals   (num,l):  2        0    1
Real-space Grid (nr,dr,rmax): 1377    0.0065406977    9.0000000000
Spherical Bessel Basis (nsws,lmax,cutoff):   37    2  183.0099912382
Confining potential (l,width,scale):  0    3.0000000000  100.0000000000
Confining potential (l,width,scale):  1    3.0000000000  100.0000000000
  1         -5.4795186097   -1.3252230651    4.5135247139   -1.6370402178
  2         -5.4480873667   -1.4027986130    4.4305957006   -1.6109824140
  3         -5.4553175168   -1.4212842775    4.4102621601   -1.6059044058
  4         -5.4627851864   -1.4247099971    4.4065125496   -1.6052912254
  5         -5.4662317525   -1.4266823431    4.4043718731   -1.6049357348
  6         -5.4679531179   -1.4277361345    4.4032352159   -1.6047498153
  7         -5.4688370531   -1.4282876632    4.4026436340   -1.6046546171
  8         -5.4692962224   -1.4285743132    4.4023378281   -1.6046060967
  9         -5.4695360875   -1.4287229388    4.4021801230   -1.6045813828
 10         -5.4696617783   -1.4287999625    4.4020988354   -1.6045687883
 11         -5.4697277645   -1.4288398966    4.4020569195   -1.6045623641
 12         -5.4697624500   -1.4288606199    4.4020352864   -1.6045590836
 13         -5.4697806994   -1.4288713865    4.4020241086   -1.6045574064
 14         -5.4697903086   -1.4288769875    4.4020183254   -1.6045565478
 15         -5.4697953717   -1.4288799052    4.4020153292   -1.6045561077
 16         -5.4697980412   -1.4288814272    4.4020137746   -1.6045558818
 17         -5.4697994496   -1.4288822223    4.4020129668   -1.6045557657
 18         -5.4698001930   -1.4288826382    4.4020125465   -1.6045557059
 19         -5.4698005858   -1.4288828561    4.4020123274   -1.6045556751
 20         -5.4698007933   -1.4288829704    4.4020122131   -1.6045556592
 21         -5.4698009031   -1.4288830304    4.4020121533   -1.6045556509
 22         -5.4698009612   -1.4288830620    4.4020121220   -1.6045556467
Atom SCF converged after  22 iterations to a total energy of     -5.46980096

Atom SCF Calculation for H  : Z (AE atom) =   1 : Z (PS atom) =   1
Config String: 1s1
Orbitals (num,occ):  1     1.00
Orbitals   (num,l):  1        0
Real-space Grid (nr,dr,rmax): 1377    0.0065406977    9.0000000000
Spherical Bessel Basis (nsws,lmax,cutoff):   37    1  183.0099912382
Confining potential (l,width,scale):  0    3.0000000000  100.0000000000
  1         -0.3687944832   -0.2607687933    0.2820952946   -0.2613406499
  2         -0.4328656062   -0.2590521405    0.2895573663   -0.2701762133
  3         -0.4633856573   -0.2560091938    0.2934204754   -0.2757429988
  4         -0.4750266404   -0.2549676794    0.2946557510   -0.2779015032
  5         -0.4793045155   -0.2546870695    0.2949704774   -0.2786577123
  6         -0.4808919118   -0.2546234645    0.2950332622   -0.2789201171
  7         -0.4814942533   -0.2546130669    0.2950388368   -0.2790132353
  8         -0.4817280090   -0.2546133926    0.2950352123   -0.2790473458
  9         -0.4818204053   -0.2546148712    0.2950319888   -0.2790602287
 10         -0.4818574273   -0.2546158825    0.2950301416   -0.2790652181
 11         -0.4818724050   -0.2546164247    0.2950292178   -0.2790671871
 12         -0.4818785049   -0.2546166894    0.2950287833   -0.2790679748
 13         -0.4818810009   -0.2546168128    0.2950285855   -0.2790682928
 14         -0.4818820255   -0.2546168689    0.2950284970   -0.2790684221
 15         -0.4818824471   -0.2546168940    0.2950284580   -0.2790684748
 16         -0.4818826210   -0.2546169051    0.2950284408   -0.2790684964
 17         -0.4818826928   -0.2546169100    0.2950284333   -0.2790685053
Atom SCF converged after  17 iterations to a total energy of     -0.48188269

Atom SCF Calculation for Li : Z (AE atom) =   3 : Z (PS atom) =   3
Config String: 1s2 2s1 2p0
Orbitals (num,occ):  3     2.00 1.00 0.00
Orbitals   (num,l):  3        0    0    1
Real-space Grid (nr,dr,rmax): 1377    0.0065406977    9.0000000000
Spherical Bessel Basis (nsws,lmax,cutoff):   37    2  183.0099912382
Confining potential (l,width,scale):  0    3.0000000000  100.0000000000
Confining potential (l,width,scale):  1    3.0000000000  100.0000000000
  1         -6.1314629607   -4.7499359229    2.5388576516   -1.0480231927
  2         -7.0450508208   -4.1702030791    2.9795337774   -1.2623862962
  3         -7.3518474013   -3.9564527259    3.2037296734   -1.3880788964
  4         -7.4613386962   -3.8947565558    3.2914990517   -1.4402825036
  5         -7.5001516047   -3.8789668192    3.3221434609   -1.4602864917
  6         -7.5136113510   -3.8755528126    3.3322769691   -1.4678164580
  7         -7.5181182589   -3.8751724459    3.3354399675   -1.4706394447
  8         -7.5195538340   -3.8753832694    3.3363346353   -1.4716958846
  9         -7.5199777516   -3.8756112412    3.3365363545   -1.4720903919
 10         -7.5200869011   -3.8757624244    3.3365501247   -1.4722372325
 11         -7.5201065703   -3.8758489541    3.3365264569   -1.4722916218
 12         -7.5201049812   -3.8758952022    3.3365040630   -1.4723116262
 13         -7.5201006323   -3.8759190019    3.3364892955   -1.4723189110
 14         -7.5200980758   -3.8759285770    3.3364824548   -1.4723210036
 15         -7.5200963811   -3.8759342877    3.3364781194   -1.4723220111
 16         -7.5200953120   -3.8759376792    3.3364754203   -1.4723224913
 17         -7.5200946593   -3.8759396866    3.3364737619   -1.4723227171
 18         -7.5200942701   -3.8759408718    3.3364727530   -1.4723228213
 19         -7.5200940419   -3.8759415700    3.3364721439   -1.4723228682
 20         -7.5200939099   -3.8759419808    3.3364717784   -1.4723228886
 21         -7.5200938343   -3.8759422222    3.3364715600   -1.4723228969
Atom SCF converged after  21 iterations to a total energy of     -7.52009383

Determining parallel strategy ...
... using space-filling curve
... NGWF load balancing: max     17;  min     12;  average     14
... Projector load balancing: max     34;  min     24;  average     28
... done
Calculating Ewald energy ...
              Ewald: real-space energy =   38140.261700
        Ewald: reciprocal-space energy =   37876.054084
         Ewald: (sum_charge)**2 Energy =    2952.768008
         Ewald: (sum_charge**2) Energy =     258.069285
                          Ewald Energy =   72805.478491
Basis initialisation ...... NGWF spheres initialised
... Projector spheres initialised
... NGWF tight boxes initialised
... Projector tight boxes initialised
... Tight-boxes gathered
... NGWF basis size (local,global):     286638  46290946
... PAW projector initialisation
... done

============================= Charge Augmentation ==============================
                           Aug box size:   13 x  13 x  13
================================================================================

========================== Sparse matrix information ===========================
                        Overlap matrix filling:  37.27%
                        Density kernel filling: 100.00%
              NGWF-Proj overlap matrix filling:  10.38%
                    Aug Overlap matrix filling:  41.81%
                    Hamiltonian matrix filling:  41.81%
                  NGWF diagonal matrix filling:   0.17%
                             KS matrix filling: 100.00% 
                           KSKS matrix filling: 100.00% 
================================================================================

Sparse matrix initialisation ... done
NGWF initialisation ...... done
============ Calculation of NGWF S^-1 using Hotelling algorithm ================ 
         Iteration  |  Frobenius norm and Maximum abs value    (of I-S*S_n^-1)   
               1       0.47661997E+02     0.99756824E+00
               2       0.47438558E+02     0.99514739E+00
               3       0.47019787E+02     0.99033760E+00
               4       0.46278320E+02     0.98084047E+00
               5       0.45081715E+02     0.96229995E+00
               6       0.43372539E+02     0.92685372E+00
               7       0.41181798E+02     0.86125932E+00
               8       0.38529226E+02     0.80704893E+00
               9       0.35491451E+02     0.79259318E+00
              10       0.32367526E+02     0.77374330E+00
              11       0.29296147E+02     0.74987257E+00
              12       0.25786476E+02     0.73207072E+00
              13       0.21234338E+02     0.70049143E+00
              14       0.15531884E+02     0.66556008E+00
              15       0.96246326E+01     0.60671369E+00
              16       0.53660329E+01     0.51192883E+00
              17       0.32006954E+01     0.37050487E+00
              18       0.18689282E+01     0.30127766E+00
              19       0.91680487E+00     0.22216621E+00
              20       0.37892935E+00     0.12906363E+00
              21       0.11958253E+00     0.44507164E-01
              22       0.14188028E-01     0.53012902E-02
              23       0.20129585E-03     0.75214037E-04
              24       0.40520024E-07     0.15140273E-07
              25       0.74354546E-13     0.53290705E-14
================================================================================
Calculating core density ...
================================= Core Density =================================
               Core den box size:   21 x  21 x  21
================================================================================
 ... done
Up spin density kernel initialisation ...... done
Down spin density kernel initialisation ...... done

Writing density kernel to file "50/592nano.dkn" ... done

>>> Optimising kernel for current NGWFs:

--------------------------- Ensemble-DFT optimisation --------------------------
Running ScaLAPACK on  160 processor(s).

--------------------------------------------------------------------------------
  Iter                              Commutator    Free_energy(A=E-TS)     DeltaA
#    0                          0.001409946490   -3202.34587788994259  -3.20E+03

Step                       =       0.381966011250
Energy (E)                 =   -3202.299345391603
Entropy (-TS)              =      -0.046532498339
Free energy (A=E-TS)       =   -3202.345877889943
Est. 0K Energy 0.5*(E+A)   =   -3202.322611640773
Residual Non-orthogonality =       0.000000000000
Residual N_electrons       =      -0.000000000000

Spin          Integrated_Ne            Fermi_level     Delta_Fermi_level
   1      1097.000000000000        -0.222003352565             -2.22E-01
   2      1097.000000000000        -0.222003352565             -2.22E-01

                           Spin 1           |                 Spin 2           |
     Orb |    H-eigenvalues     Occupancies |    H-eigenvalues     Occupancies |
       1 |    -1.9210238398    1.0000000000 |    -1.9210238398    1.0000000000 | 
                          ------                             ------
    1092 |    -0.2350957352    0.9842377188 |    -0.2350957352    0.9842377188 | 
    1093 |    -0.2264374934    0.8022141933 |    -0.2264374934    0.8022141933 | 
    1094 |    -0.2256446131    0.7594778876 |    -0.2256446131    0.7594778876 | 
    1095 |    -0.2244466885    0.6838549067 |    -0.2244466885    0.6838549067 | 
    1096 |    -0.2228700612    0.5679973286 |    -0.2228700612    0.5679973286 | 
                  Finite temp. Fermi level   |      Finite temp. Fermi level  
    1097 |    -0.2219164963    0.4931436736 |    -0.2219164963    0.4931436736 | 
                 - Gap at zero temperature - |     - Gap at zero temperature -
    1098 |    -0.2211933130    0.4363988346 |    -0.2211933130    0.4363988346 | 
    1099 |    -0.2200870342    0.3531719381 |    -0.2200870342    0.3531719381 | 
    1100 |    -0.2191183586    0.2867933940 |    -0.2191183586    0.2867933940 | 
    1101 |    -0.2171827901    0.1791358305 |    -0.2171827901    0.1791358305 | 
                          ------                             ------
    2294 |     0.5530853092    0.0000000000 |     0.5530853092    0.0000000000 | 

                            |  Abs_value |  Threshold | Converged
     Delta_Free_energy/atom |   4.99E+00 |   1.00E-06 |        No
     Delta_Energy/atom      |   4.99E+00 |   1.00E-04 |        No
     Delta_Entropy/atom     |   7.25E-05 |   1.00E-04 |       Yes
     Commutator             |   1.41E-03 |   1.00E-05 |        No
     Delta_Fermi_level      |   2.22E-01 |   1.00E-03 |        No

  Line search of the free energy minimum:
  Step_type        Step             Free_energy   Predicted_free_energy
.   Initial    0.000000    -3202.34587788994259

Performing  Pulay mixing of Hamiltonian with coefficients:
                        Spin 1               Spin 2
                1.000000000000       1.000000000000
Lambda-->      44.486023646444      44.486023644597     ... done

.    Trial1    0.381966    -3201.22892894983306

Performing  Pulay mixing of Hamiltonian with coefficients:
[...]
 H   275 -- Li  608       -0.01     -0.00      5.64771
 Li  600 -- Li  607       -0.13      0.00      5.64833
 H   127 -- Li  633       -0.02      0.00      5.65380
 H   297 -- Li  595       -0.02     -0.00      5.65453
 C   424 -- Li  636       -0.07     -0.00      5.65570
 C    35 -- Li  640       -0.04     -0.00      5.65951
 C   361 -- Li  601       -0.04     -0.00      5.66047
 H   458 -- Li  617       -0.01     -0.00      5.66084
 H   286 -- Li  594       -0.02     -0.00      5.66342
 C   366 -- Li  642       -0.08     -0.00      5.66707
 C   541 -- Li  641       -0.05     -0.00      5.66869
=============================================================


============== Orbital energy and occupancy information for spin 1 =============

      Total number of orbitals:    2294
        Occupancy sum (kernel):    1096.999999977
   Occupancy sum (eigenvalues):    1096.999999977
                 HOMO-LUMO gap:       0.001308348 Eh
                 Mid-gap level:      -0.072653012 Eh

                        Orbital | Energy (Eh) | Occupancy
                            1    -1.853610367   1.0000000
                        .......   ...........   .........
                         1089    -0.090745389   0.9936734
                         1090    -0.088655741   0.9879292
                         1091    -0.086569220   0.9770964
                         1092    -0.084576449   0.9569828
                         1093    -0.081309565   0.8858133
                         1094    -0.079732266   0.8185649
                         1095    -0.077793718   0.7144477
                         1096    -0.074369505   0.4561872
                         1097    -0.074022160   0.4251698
                         1098    -0.073307186   0.3740680
                        ....... -- gap at 0K -- .........
                         1099    -0.071998838   0.2793569
                         1100    -0.071640764   0.2543379
                         1101    -0.070549683   0.1957467
                         1102    -0.069950988   0.1699539
                         1103    -0.068096994   0.0987078
                         1104    -0.067514382   0.0844326
                         1105    -0.067118731   0.0743375
                         1106    -0.065893465   0.0504697
                         1107    -0.065167237   0.0411232
                         1108    -0.064639687   0.0352318
                        .......   ...........   .........
                         2294     0.765319738   0.0000000

================================================================================

============== Orbital energy and occupancy information for spin 2 =============

      Total number of orbitals:    2294
        Occupancy sum (kernel):    1097.000000025
   Occupancy sum (eigenvalues):    1097.000000025
                 HOMO-LUMO gap:       0.000714975 Eh
                 Mid-gap level:      -0.073664673 Eh

                        Orbital | Energy (Eh) | Occupancy
                            1    -1.853610367   1.0000000
                        .......   ...........   .........
                         1088    -0.092087880   0.9958814
                         1089    -0.090745389   0.9936734
                         1090    -0.088655741   0.9879292
                         1091    -0.086569220   0.9770964
                         1092    -0.084576449   0.9569828
                         1093    -0.081309565   0.8858133
                         1094    -0.079732266   0.8185649
                         1095    -0.077793718   0.7144477
                         1096    -0.074369505   0.4561873
                         1097    -0.074022160   0.4251698
                        ....... -- gap at 0K -- .........
                         1098    -0.073307186   0.3740680
                         1099    -0.071998838   0.2793569
                         1100    -0.071640764   0.2543379
                         1101    -0.070549683   0.1957467
                         1102    -0.069950988   0.1699539
                         1103    -0.068096994   0.0987078
                         1104    -0.067514383   0.0844326
                         1105    -0.067118731   0.0743375
                         1106    -0.065893465   0.0504697
                         1107    -0.065167237   0.0411232
                        .......   ...........   .........
                         2294     0.765319738   0.0000000

================================================================================

===================== Writing canonical molecular orbitals =====================
    Spin 1
| Orbital  Energy (eV)  Norm     |
| HOMO     -1.99479003  1.000000 | Writing "50/592nano_HOMO_UP.cube" ... done
Writing "50/592nano_HOMO_UP.dx" ... done
| LUMO     -1.95918807  1.000000 | Writing "50/592nano_LUMO_UP.cube" ... done
Writing "50/592nano_LUMO_UP.dx" ... done
================================================================================

===================== Writing canonical molecular orbitals =====================
    Spin 2
| Orbital  Energy (eV)  Norm     |
| HOMO     -2.01424548  1.000000 | Writing "50/592nano_HOMO_DN.cube" ... done
Writing "50/592nano_HOMO_DN.dx" ... done
| LUMO     -1.99479003  1.000000 | Writing "50/592nano_LUMO_DN.cube" ... done
Writing "50/592nano_LUMO_DN.dx" ... done
================================================================================

================== Local Density of States (LDOS) calculation ==================
Writing "50/592nano_UP_LDOS.txt" ...  done
================================================================================

================== Local Density of States (LDOS) calculation ==================
Writing "50/592nano_DN_LDOS.txt" ...  done
================================================================================
 
=============== Density of States (DOS) calculation for UP spin ================
Writing "50/592nano_UP_DOS.txt" ...  done
================================================================================
 
============== Density of States (DOS) calculation for DOWN spin ===============
Writing "50/592nano_DN_DOS.txt" ...  done
================================================================================
 
Writing bands to file "50/592nano.val_bands" ... done
 
================ Projected Density of States (pDOS) calculation ================
 
Constructing AM resolved functions  ...... done
Writing NGWF plot files in formats: CUBE DX ...  done
 
Performing overlap integrals ...  done
 
Computing pDOS weights ...  done
 
All bands spilling parameter =   3.72 %
Occupancy-weighted spilling parameter =   0.77 %
 
 => Outputting data for OptaDOS <=
 
Writing pDOS weights to file "50/592nano.val_pdos_bin" ... done
 
Writing band gradients to file "50/592nano.val_dome_bin" ... done
 
Writing Castep output cell file to "50/592nano-out.cell" ... done
 
 => Computing Gaussian smeared pDOS for UP spin<= 
Writing "50/592nano_UP_PDOS.txt" ...  done
 
 => Computing Gaussian smeared pDOS for DOWN spin<= 
Writing "50/592nano_DN_PDOS.txt" ...  done
 
 => Computing Occupancy-weighted Gaussian smeared pDOS for UP spin<= 
Writing "50/592nano_occ_UP_PDOS.txt" ...  done
  => Band centres for UP spin channel: 
 S band centre of group 1:  -19.553186 eV
 P band centre of group 1:   -8.312142 eV
  Band centres for UP spin channel done. <= 
  => Integrated number of electrons in each AM band for UP spin channel: 
 S num electrons of group 1:  316.164255
 P num electrons of group 1:  772.415571
  Integrated number of electrons for UP spin channel done. <= 
 
 => Computing Occupancy-weighted Gaussian smeared pDOS for DOWN spin<= 
Writing "50/592nano_occ_DN_PDOS.txt" ...  done
  => Band centres for DOWN spin channel: 
 S band centre of group 1:  -19.553186 eV
 P band centre of group 1:   -8.312142 eV
  Band centres for DOWN spin channel done. <=
  => Integrated number of electrons in each AM band for DOWN spin channel: 
 S num electrons of group 1:  316.164255
 P num electrons of group 1:  772.415571
  Integrated number of electrons for DOWN spin channel done. <=
================================================================================

------------------------------ TIMING INFORMATION ------------------------------
AVERAGE TIME:    9519.434s on    160 proc(s)                                    
TOTAL TIME:      9519.487s on    160 proc(s)                                    
================= AVERAGE TIMINGS FROM ALL PROCS (CUMULATIVE) ==================
|| TAG                                    #calls    cpu time   %total  Gflops ||
|| work_imbalance                       :     1        0.00s   0.000%  ------ ||
|| paw_tcore_density                    :     1        0.01s   0.000%  ------ ||
|| sparse_set_to_garbage                :   264        0.01s   0.000%  ------ ||
|| paw_dij_hartree                      :   281        0.01s   0.000%  ------ ||
|| paw_sphere_density_on_grid           :     1        0.01s   0.000%  ------ ||
|| basis_extract_function_from_box      :   430        0.03s   0.000%  ------ ||
|| ngwfs_initialise_from_radial         :     2        0.03s   0.000%  ------ ||
|| ewald_calculate_energy               :     1        0.08s   0.001%  ------ ||
|| pseudo_make_structure_factor         :     1        0.24s   0.003%  ------ ||
|| paw_tcore_hartree_on_grid            :     1        0.31s   0.003%  ------ ||
|| paw_dataset_init                     :     3        0.47s   0.005%  ------ ||
|| density_init_guess_real              :     1        0.55s   0.006%  ------ ||
|| dense_normal_eigensolve              :     1        0.90s   0.009%  ------ ||
|| sparse_init                          :     1        1.11s   0.012%  ------ ||
|| restart_kernel_write                 :    16        1.32s   0.014%  ------ ||
|| paw_species_calc_proj_prec_mat       :     1        1.52s   0.016%  ------ ||
|| augmentation_screen_dij              :   197        2.99s   0.031%  ------ ||
|| sw_init                              :     1        5.01s   0.053%  ------ ||
|| paw_dij_xc                           :   281        7.24s   0.076%  ------ ||
|| ngwf_gradient_coeffs                 :    15        7.97s   0.084%  ------ ||
|| sparse_embed_hotelling_invert_embed  :    30        8.01s   0.084%  ------ ||
|| basis_copy_function_to_box           :  8530        8.59s   0.090%  ------ ||
|| hartree_on_grid                      :   192       12.51s   0.131%  ------ ||
|| aug_nonlocal_mat                     :   266       15.44s   0.162%  ------ ||
|| fourier_apply_box_pair               :  1082       15.78s   0.166%  1.811k ||
|| projectors_init_fftbox_recip         :    92       23.40s   0.246%  ------ ||
|| augmentation_density_on_grid         :   192       25.78s   0.271%  ------ ||
|| sparse_trace                         :  8540       28.37s   0.298%  ------ ||
|| basis_dot_function_with_box          : 2.392M      45.99s   0.483%  ------ ||
|| projectors_func_ovlp_box             :    31       55.44s   0.582%  ------ ||
|| integrals_kinetic                    :    30       71.96s   0.756%  ------ ||
|| eigenstates_pdos                     :     1       72.29s   0.759%  ------ ||
|| hamiltonian_energy_components        :     3      112.66s   1.183%  ------ ||
|| function_ops_brappd_ketppd           :    62      119.10s   1.251%  ------ ||
|| eigenstates_calculate                :     1      138.21s   1.452%  ------ ||
|| dense_eigensolve                     :   314      149.93s   1.575%  ------ ||
|| basis_add_function_to_box            : 6.178M     170.87s   1.795%  ------ ||
|| fourier_apply_cell_forward           :  7068      175.75s   1.846% 139.977 ||
|| restart_ngwfs_tightbox_output        :    14      217.95s   2.289%  ------ ||
|| sparse_product                       : 12160      243.65s   2.559%  ------ ||
|| fourier_apply_cell_backward          :  7833      262.27s   2.755% 103.953 ||
|| cell_grid_deposit_box_real           : 14301      274.98s   2.889%  ------ ||
|| cell_grid_extract_box_real           :  5434      400.30s   4.205%  ------ ||
|| integrals_locpot_mat_els_batch       :   326      427.05s   4.486%  ------ ||
|| density_batch_row_sums               :   384      439.92s   4.621%  ------ ||
|| edft_diag_ngwf_ham                   :   312      480.34s   5.046%  ------ ||
|| projectors_gradient_batch            :    30      494.44s   5.194%  ------ ||
|| xc_energy_potential                  :   191      495.09s   5.201%  ------ ||
|| density_fftbox_interpolate_multiply  :  6528      564.86s   5.934%  ------ ||
|| density_fftbox_deposit_to_cell       :  6528      565.95s   5.945%  ------ ||
|| fourier_apply_box                    : 28569      591.70s   6.216%  4.128k ||
|| nlxc_vdw_energy                      :   382      663.52s   6.970%  ------ ||
|| edft_apply_smearing_operator         :   156      752.63s   7.906%  ------ ||
|| potential_apply_to_ngwf_batch        :   326      814.73s   8.559%  ------ ||
|| properties_calculate                 :     1      933.27s   9.804%  ------ ||
|| integrals_locpot_dbl_grid            :   163     1244.61s  13.074%  ------ ||
|| projectors_grad_precond_batch        :    30     1267.32s  13.313%  ------ ||
|| density_batch_interp_deposit         :   384     1477.87s  15.525%  ------ ||
|| ngwf_gradient_build_batch            :    30     1942.49s  20.406%  ------ ||
|| density_on_dbl_grid                  :   192     2060.54s  21.646%  ------ ||
|| ngwf_gradient_batch                  :    30     2118.66s  22.256%  ------ ||
|| hamiltonian_lhxc_calculate           :   187     2624.92s  27.574%  ------ ||
|| ngwf_gradient_lnv                    :    15     3011.31s  31.633%  ------ ||
|| edft_calculate                       :    15     4565.87s  47.964%  ------ ||
|| ngwf_cg_optimise                     :     1     8555.10s  89.870%  ------ ||
|| total_time                           :     1     9519.43s 100.000%  ------ ||
================================================================================
==================== AVERAGE TIMINGS FROM ALL PROCS (SELF) =====================
++ TAG                                    #calls    cpu time   %total  Gflops ++
++ nlxc_vdw_energy                      :   382       -5.48s  -0.058%  ------ ++
++ work_imbalance                       :     1        0.00s   0.000%  ------ ++
++ paw_tcore_density                    :     1        0.00s   0.000%  ------ ++
++ paw_sphere_density_on_grid           :     1        0.01s   0.000%  ------ ++
++ sparse_set_to_garbage                :   264        0.01s   0.000%  ------ ++
++ paw_tcore_hartree_on_grid            :     1        0.01s   0.000%  ------ ++
++ paw_dij_hartree                      :   281        0.01s   0.000%  ------ ++
++ basis_extract_function_from_box      :   430        0.03s   0.000%  ------ ++
++ ngwfs_initialise_from_radial         :     2        0.03s   0.000%  ------ ++
++ sparse_embed_hotelling_invert_embed  :    30        0.04s   0.000%  ------ ++
++ ngwf_gradient_coeffs                 :    15        0.06s   0.001%  ------ ++
++ ewald_calculate_energy               :     1        0.08s   0.001%  ------ ++
++ pseudo_make_structure_factor         :     1        0.24s   0.003%  ------ ++
++ density_init_guess_real              :     1        0.29s   0.003%  ------ ++
++ paw_dataset_init                     :     3        0.47s   0.005%  ------ ++
++ hartree_on_grid                      :   192        0.72s   0.008%  ------ ++
++ dense_normal_eigensolve              :     1        0.90s   0.009%  ------ ++
++ aug_nonlocal_mat                     :   266        1.02s   0.011%  ------ ++
++ sparse_init                          :     1        1.11s   0.012%  ------ ++
++ paw_species_calc_proj_prec_mat       :     1        1.28s   0.013%  ------ ++
++ restart_kernel_write                 :    16        1.32s   0.014%  ------ ++
++ hamiltonian_energy_components        :     3        1.94s   0.020%  ------ ++
++ main_program_(onetep.F90)            :     1        2.25s   0.024%  ------ ++
++ augmentation_screen_dij              :   197        2.45s   0.026%  ------ ++
++ integrals_locpot_dbl_grid            :   163        2.83s   0.030%  ------ ++
++ sw_init                              :     1        5.01s   0.053%  ------ ++
++ augmentation_density_on_grid         :   192        6.61s   0.069%  ------ ++
++ paw_dij_xc                           :   281        7.24s   0.076%  ------ ++
++ basis_copy_function_to_box           :  8530        8.59s   0.090%  ------ ++
++ fourier_apply_box_pair               :  1082       15.78s   0.166%  1.811k ++
++ projectors_init_fftbox_recip         :    92       23.40s   0.246%  ------ ++
++ sparse_trace                         :  8540       28.37s   0.298%  ------ ++
++ projectors_func_ovlp_box             :    31       32.94s   0.346%  ------ ++
++ basis_dot_function_with_box          : 2.392M      45.99s   0.483%  ------ ++ (!) overhead: ~   5.6%
++ eigenstates_calculate                :     1       48.84s   0.513%  ------ ++
++ edft_calculate                       :    15       50.21s   0.527%  ------ ++
++ eigenstates_pdos                     :     1       58.95s   0.619%  ------ ++
++ integrals_kinetic                    :    30       62.03s   0.652%  ------ ++
++ xc_energy_potential                  :   191       74.63s   0.784%  ------ ++
++ ngwf_gradient_build_batch            :    30       74.92s   0.787%  ------ ++
++ hamiltonian_lhxc_calculate           :   187       93.61s   0.983%  ------ ++
++ ngwf_gradient_batch                  :    30      112.76s   1.185%  ------ ++
++ function_ops_brappd_ketppd           :    62      119.10s   1.251%  ------ ++
++ density_on_dbl_grid                  :   192      142.75s   1.500%  ------ ++
++ dense_eigensolve                     :   314      149.93s   1.575%  ------ ++
++ basis_add_function_to_box            : 6.178M     170.87s   1.795%  ------ ++ (!) overhead: ~   3.9%
++ fourier_apply_cell_forward           :  7068      175.75s   1.846% 139.977 ++
++ ngwf_cg_optimise                     :     1      183.35s   1.926%  ------ ++
++ density_fftbox_interpolate_multiply  :  6528      214.72s   2.256%  ------ ++
++ restart_ngwfs_tightbox_output        :    14      217.93s   2.289%  ------ ++
++ sparse_product                       : 12160      243.65s   2.559%  ------ ++
++ edft_apply_smearing_operator         :   156      255.76s   2.687%  ------ ++
++ fourier_apply_cell_backward          :  7833      262.27s   2.755% 103.953 ++
++ cell_grid_deposit_box_real           : 14301      274.98s   2.889%  ------ ++
++ density_fftbox_deposit_to_cell       :  6528      292.33s   3.071%  ------ ++
++ density_batch_interp_deposit         :   384      306.01s   3.215%  ------ ++
++ edft_diag_ngwf_ham                   :   312      331.41s   3.481%  ------ ++
++ density_batch_row_sums               :   384      334.73s   3.516%  ------ ++
++ integrals_locpot_mat_els_batch       :   326      390.18s   4.099%  ------ ++
++ cell_grid_extract_box_real           :  5434      400.30s   4.205%  ------ ++
++ projectors_gradient_batch            :    30      478.94s   5.031%  ------ ++
++ potential_apply_to_ngwf_batch        :   326      496.52s   5.216%  ------ ++
++ properties_calculate                 :     1      531.55s   5.584%  ------ ++
++ fourier_apply_box                    : 28569      591.70s   6.216%  4.128k ++
++ ngwf_gradient_lnv                    :    15      884.68s   9.293%  ------ ++
++ projectors_grad_precond_batch        :    30     1247.75s  13.107%  ------ ++
================================================================================
(!) WARNING: You're wasting precious cycles calling timer. 
             Each pair of timer_clock calls itself cost   1.08 microseconds!
Overhead of generating timer report: 
- 0 ms averaging over threads,
- 20 ms ensuring consistency across MPI ranks,
- 0 ms printing in order.

Job completed: 16-12-2021 11:24 (-0000)

