 +---------------------------------------------------------------+
 |                                                               |
 |        ####### #     # ####### ####### ####### ######         |
 |        #     # ##    # #          #    #       #     #        |
 |        #     # # #   # #          #    #       #     #        |
 |        #     # #  #  # #####      #    #####   ######         |
 |        #     # #   # # #          #    #       #              |
 |        #     # #    ## #          #    #       #              |
 |        ####### #     # #######    #    ####### #              |
 |                                                               |
 |        Linear-Scaling Ab Initio Total Energy Program          |
 |                                                               |
 |          Release for academic collaborators of ODG            |
 |                                             Version 5.3.2.12  |
 |                                                               |
 +---------------------------------------------------------------+
 |                                                               |
 |  Authors:                                                     |
 |  Jacek Dziedzic, Peter D. Haynes, Nicholas D. M. Hine,        |
 |  Arash. A. Mostofi, Mike C. Payne and Chris-Kriton Skylaris   |
 |                                                               |
 |  Contributors:                                                |
 |  J. Aarons, L. Andrinopoulos, P. W. Avraam, R. A. Bell,       |
 |  A. Bhandari, G. A. Bramley, R. J. Charlton, S. J. Clark,     |
 |  R. J. Clements, G. C. Constantinescu, F. Corsetti,           |
 |  N. Corsini, O. Dieguez, S. M. M. Dubois, K. K. B. Duff,      |
 |  J. M. Escartin, A. Greco, H. Helal, Q. O. Hill, L. P. Lee,   |
 |  J.-H. Li, E. B. Linscott, G. Moynihan, D. D. O`Regan,        |
 |  O. K. Okan, M. J. S. Phipps, C. J. Pickard,                  |
 |  J. C. A. Prentice, M. I. J. Probert, L. E. Ratcliff,         |
 |  M. Robinson, A. Ruiz Serrano, J. S. Spencer, E. W. Tait,     |
 |  G. Teobaldi, D. Turban, V. Vitale, K. A. Wilkinson,          |
 |  C. Weber, J. C. Womack, N. Yeung and T. J. Zuehlsdorff       |
 |                                                               |
 |                                   Copyright (c) 2004-2020     |
 |                                                               |
 |  Please cite:                                                 |
 |  "Introducing ONETEP: Linear-scaling density functional       |
 |   simulations on parallel computers".                         |
 |   C.-K. Skylaris, P. D. Haynes, A. A. Mostofi, M. C. Payne.   |
 |   J. Chem. Phys. 122 084119 (2005).                           |
 |                                                               |
 |          in all publications arising from your use of ONETEP. |
 |                                                               |
 +---------------------------------------------------------------+
 |                                                               |
 |   ONETEP is based on developments described in the following  |
 |   publications:                                               |
 |                                                               |
 |  "Nonorthogonal generalized Wannier function pseudopotential  |
 |   plane-wave method".                                         |
 |   C.-K. Skylaris, A. A. Mostofi, P. D. Haynes, O. Dieguez,    |
 |   M. C. Payne.                                                |
 |   Phys. Rev. B 66 035119 (2002).                              |
 |                                                               |
 |  "Preconditioned iterative minimization for linear-scaling    |
 |   electronic structure calculations".                         |
 |   A. A. Mostofi, P. D. Haynes, C.-K. Skylaris, M. C. Payne.   |
 |   J. Chem. Phys. 119(17), pp.8842-8848 (2003).                |
 |                                                               |
 |  "Total-energy calculations on a real space grid with         |
 |   localized functions and a plane-wave basis".                |
 |   A. A. Mostofi, C.-K. Skylaris, P. D. Haynes, M. C. Payne.   |
 |   Comput. Phys. Commun. 147, pp.788-802 (2002).               |
 |                                                               |
 |  "Accurate kinetic energy evaluation in electronic structure  |
 |   calculations with localized functions on real space grids"  |
 |   C.-K. Skylaris, A. A. Mostofi, P. D. Haynes, C. J. Pickard, |
 |   M. C. Payne.                                                |
 |   Comput. Phys. Commun. 140, pp.315-322 (2001).               |
 |                                                               |
 |  "Accurate ionic forces and geometry optimization in linear-  |
 |   scaling density-functional theory with local orbitals"      |
 |   N. D. M. Hine, M. Robinson, P. D. Haynes, C.-K. Skylaris,   |
 |   M. C. Payne, and A. A. Mostofi.                             |
 |   Phys. Rev. B 83 195102 (2011).                              |
 |                                                               |
 +---------------------------------------------------------------+

Job started: 18-07-2020 15:04 (+0100)
 
Reading parameters from file "38/592nano.dat" ...... done

If your calculation crashes here, before "Checking processes and threads..."
is displayed, then your stack size is insufficient.
If so, use "ulimit -s unlimited" at runtime.
You can disable this check with "check_stack_size F".

Checking processes and threads...
   Determining the default number of threads...
      No default threads set at compilation time: defaulting to 1.
      OpenMP library call suggests 4 threads.
      Hybrid MPI-OpenMP compilation detected.
      Number of MPI processes > 1.
      OMP_NUM_THREADS environment variable present and
      its value matches the one obtained from the OpenMP library call.
      Using this value as default.
      Default threads: 4
      Default applies to threads_max and threads_num_fftboxes.
      Settings in the input file override this default.
   ... done

   Running with 160 MPI processes.
   There are 10 MPI processes running on the same node as the root process.
   Each MPI process is using: 
               1 threads for simulation cell FFTs.
               1 threads for parallel FFT box operations.
               4 threads for loops over batched FFT box operations.
               4 threads in other parallel regions.
... done

Basic input checks...
Resetting ngwf_cg_rotate to TRUE for EDFT calculations
... done

Reading geometry and species blocks from file "38/592nano.dat" ...    
  Number of PPD points along a3 set to 1.  This is 
  the default value, it may have been provided also in the input file.
... done
 Writing xyz coordinates to file "38/592nano.xyz" ... done


--------------------------------------------------------------------------------
---------------------------------- INPUT FILE ----------------------------------
--------------------------------------------------------------------------------

task : singlepoint                                                              
ddec_classical_hirshfeld T                                                      
do_properties : true                                                            
dx_format T                                                                     
edft T                                                                          
output_detail VERBOSE                                                           
write_xyz T                                                                     
dispersion 4                                                                    
xc_functional PBE                                                               
cutoff_energy 830 eV                                                            
paw T                                                                           
geom_disp_tol 0.015 bohr                                                        
geom_energy_tol 1.5E-6 hartree                                                  
geom_force_tol 0.01 "ha/bohr"                                                   
%BLOCK SPECIES_LDOS_GROUPS                                                      
C                                                                               
H                                                                               
Li                                                                              
%ENDBLOCK SPECIES_LDOS_GROUPS                                                   
EDFT_MAXIT 30                                                                   
pdos_max_l = 2                                                                  
dos_smear  0.1 eV                                                               
popn_calculate T                                                                
PDOS_PSEUDOATOMIC T                                                             
PDOS_REDUCE_SWS F                                                               
PDOS_CONSTRUCT_BASIS F                                                          
PDOS_LOWDIN T                                                                   
PDOS_ORTH_ATOM_BLOCKS F                                                         
PDOS_LCAO_OPTIMIZE F                                                            
pdos_optados_output T                                                           
homo_plot 0                                                                     
lumo_plot 0                                                                     
homo_dens_plot -1                                                               
lumo_dens_plot -1                                                               
%BLOCK SPECIES                                                                  
C C 6 4 9.0                                                                     
H H 1 1 9.0                                                                     
Li Li 3 5 9.0                                                                   
%ENDBLOCK SPECIES                                                               
%BLOCK SPECIES_POT                                                              
C "~/pp/paw/c_pbe_abinit.paw"                                                   
H "~/pp/paw/h_pbe_abinit.paw"                                                   
Li "~/pp/paw/li_pbe_abinit.paw"                                                 
%ENDBLOCK SPECIES_POT                                                           
%BLOCK SPECIES_ATOMIC_SET                                                       
C "SOLVE conf=2s2 2p2"                                                          
H "SOLVE conf=1s1"                                                              
Li "SOLVE conf=1s2 2s1 2p0"                                                     
%ENDBLOCK SPECIES_ATOMIC_SET                                                    
%BLOCK LATTICE_CART                                                             
94.486315650000      0.000000000000       0.000000000000                        
0.000000000000       94.486315650000      0.000000000000                        
0.000000000000       0.000000000000       94.486315650000                       
%ENDBLOCK LATTICE_CART                                                          
%BLOCK POSITIONS_ABS                                                            
C 45.527443 50.722729 30.494705                                                 
C 45.402664 50.541865 36.302701                                                 
C 46.874787 53.061595 30.491048                                                 
C 48.102949 50.547210 36.307614                                                 
C 49.582123 48.388665 30.511377                                                 
C 49.454703 48.206237 36.238312                                                 
C 50.936155 50.727766 30.502019                                                 
C 52.170456 48.199185 36.292425                                                 
C 45.519800 55.395013 30.422502                                                 
C 45.411752 55.227779 36.368384                                                 
C 46.865020 57.733493 30.345083                                                 
C 48.109232 55.211408 36.518947                                                 
C 49.577366 53.065746 30.497598                                                 
C 49.455860 52.876144 36.452677                                                 
C 50.921358 55.399776 30.409574                                                 
C 52.153728 52.867357 36.605705                                                 
C 45.413020 50.522980 43.449629                                                 
C 45.437878 50.446099 49.264341                                                 
C 46.780124 52.876921 43.474615                                                 
C 48.138633 50.465206 49.292539                                                 
C 49.452112 48.175196 43.608273                                                 
C 49.499314 48.135045 49.359514                                                 
C 50.816727 50.521086 43.428477                                                 
C 52.196980 48.152823 49.470243                                                 
C 45.431937 55.234340 43.391764                                                 
C 45.409614 55.121078 49.337640                                                 
C 46.779509 57.567539 43.244913                                                 
C 48.110696 55.146021 49.329676                                                 
C 49.477838 52.867431 43.368573                                                 
C 49.474642 52.814117 49.306610                                                 
C 50.817126 55.203183 43.197240                                                 
C 52.170206 52.835558 49.386262                                                 
C 57.681927 48.382512 30.070327                                                 
C 57.521550 48.165119 36.917228                                                 
C 59.038492 50.712554 30.008444                                                 
C 60.245816 48.154921 37.150462                                                 
C 57.566586 48.204675 43.005994                                                 
C 57.558739 48.188523 49.965673                                                 
C 58.915658 50.555164 42.851828                                                 
C 60.284573 48.208266 50.258371                                                 
C 53.632692 50.725752 30.421165                                                 
C 53.510207 50.535359 36.551422                                                 
C 54.983026 53.068850 30.340860                                                 
C 56.191334 50.515937 36.825907                                                 
C 53.515518 50.523310 43.256426                                                 
C 53.528579 50.500380 49.489804                                                 
C 54.852071 52.864437 43.069284                                                 
C 56.222461 50.517960 49.732727                                                 
C 57.658655 43.710339 29.832896                                                 
C 57.525120 43.482884 36.769439                                                 
C 59.014534 46.030237 29.798795                                                 
C 60.236060 43.484506 37.001152                                                 
C 57.554852 43.505702 42.963143                                                 
C 57.600726 43.507512 50.111213                                                 
C 58.916010 45.841389 42.961558                                                 
C 60.311603 43.536888 50.345128                                                 
C 53.635372 46.053694 30.352917                                                 
C 53.508052 45.844658 36.453196                                                 
C 54.981398 48.383652 30.314575                                                 
C 56.191750 45.840874 36.722660                                                 
C 53.521733 45.837459 43.369138                                                 
C 53.553704 45.818513 49.639179                                                 
C 54.871459 48.184901 43.234130                                                 
C 56.239090 45.841554 49.884423                                                 
C 57.668440 57.755487 30.116595                                                 
C 57.549002 57.517886 37.019578                                                 
C 59.021637 60.145581 30.072437                                                 
C 60.248371 57.504160 37.033089                                                 
C 57.563381 57.541812 42.918728                                                 
C 57.544017 57.553998 49.640478                                                 
C 58.917305 59.870147 42.916435                                                 
C 60.289455 57.544029 49.698191                                                 
C 45.488788 64.743185 30.107317                                                 
C 45.436051 64.562252 36.571029                                                 
C 46.871156 67.106585 30.060421                                                 
C 48.106964 64.563206 36.838626                                                 
C 49.534976 62.392449 29.941177                                                 
C 49.465093 62.210512 36.844561                                                 
C 50.892794 64.765888 29.682213                                                 
C 52.166863 62.207664 36.955360                                                 
C 45.438082 64.577650 43.088963                                                 
C 45.336850 64.433037 50.233022                                                 
C 46.812473 66.927757 42.987313                                                 
C 48.022685 64.478558 50.154328                                                 
C 49.473494 62.213883 42.944060                                                 
C 49.411820 62.159877 49.857498                                                 
C 50.836582 64.579997 42.760040                                                 
C 52.109514 62.197095 49.861624                                                 
C 53.599352 60.063768 29.983118                                                 
C 53.507051 59.860759 36.964292                                                 
C 54.959475 62.434783 29.730338                                                 
C 56.222490 59.847752 37.052885                                                 
C 53.521410 59.848678 42.911189                                                 
C 53.478810 59.873565 49.652908                                                 
C 54.888135 62.197584 42.755991                                                 
C 56.186740 59.892470 49.710268                                                 
C 57.685575 53.063968 30.147651                                                 
C 57.522608 52.857167 37.017740                                                 
C 59.031916 55.417452 30.057879                                                 
C 60.248419 52.852559 37.188093                                                 
C 57.551855 52.881711 42.888802                                                 
C 57.544590 52.873705 49.810375                                                 
C 58.910413 55.229787 42.840363                                                 
C 60.270338 52.891459 50.104523                                                 
C 45.501653 60.069501 30.242238                                                 
C 45.424470 59.886513 36.556861                                                 
C 46.847163 62.397485 30.096238                                                 
C 48.117095 59.878520 36.694101                                                 
C 49.560171 57.735212 30.317035                                                 
C 49.459978 57.544555 36.702018                                                 
C 50.903012 60.074782 30.087880                                                 
C 52.149177 57.530755 36.841402                                                 
C 45.430455 59.900039 43.189727                                                 
C 45.379189 59.785896 49.656443                                                 
C 46.787045 62.227541 43.072539                                                 
C 48.072084 59.813485 49.614663                                                 
C 49.474957 57.548405 43.157212                                                 
C 49.443040 57.494783 49.434446                                                 
C 50.825861 59.877608 43.004922                                                 
C 52.148091 57.522749 49.469183                                                 
C 53.627944 55.398973 30.335042                                                 
C 53.492579 55.192361 36.829539                                                 
C 54.963397 57.745060 30.154638                                                 
C 56.187434 55.184703 36.970441                                                 
C 53.510292 55.197604 43.066674                                                 
C 53.504303 55.190226 49.451082                                                 
C 54.860979 57.531834 42.959142                                                 
C 56.200476 55.199820 49.616192                                                 
H 27.299600 41.346340 29.509693                                                 
H 28.197185 39.480894 36.749925                                                 
H 27.136640 41.286446 42.581144                                                 
H 28.331053 39.230712 50.631214                                                 
H 41.893875 30.269107 29.544999                                                 
C 42.939884 32.053383 29.582009                                                 
H 44.398422 30.075863 36.812231                                                 
H 41.683848 30.072030 42.871176                                                 
C 42.718840 31.863386 42.937078                                                 
H 44.538545 29.975388 49.647733                                                 
H 29.645979 37.244220 29.490712                                                 
C 30.686139 39.028564 29.566135                                                 
H 32.226966 37.131773 36.613753                                                 
H 33.759711 34.851622 29.539030                                                 
C 34.780431 36.648140 29.586141                                                 
H 29.402704 37.212689 43.183949                                                 
C 30.478197 38.981257 43.132836                                                 
H 32.426707 36.925310 50.740181                                                 
H 33.491351 34.750320 43.808713                                                 
C 34.534144 36.533090 43.660414                                                 
H 37.857875 32.565659 29.393765                                                 
C 38.867079 34.371051 29.445200                                                 
H 40.353402 32.435423 37.046939                                                 
H 37.616546 32.375496 43.071550                                                 
C 38.616782 34.188234 43.041759                                                 
H 40.464704 32.306618 50.198703                                                 
H 46.567461 30.274778 29.919474                                                 
H 46.372061 30.095333 43.173863                                                 
H 25.793003 48.197918 36.356594                                                 
C 27.857575 48.213403 36.462238                                                 
H 25.846974 47.973589 50.126765                                                 
C 27.913023 47.995085 50.089580                                                 
H 25.826003 43.530127 36.610055                                                 
H 27.310806 46.062394 29.328835                                                 
C 27.891907 43.532856 36.703195                                                 
H 25.922837 43.254297 50.245224                                                 
H 27.161173 45.984696 42.648763                                                 
C 27.989837 43.280943 50.240919                                                 
H 25.850722 57.673328 36.639876                                                 
H 27.310403 60.022224 29.066909                                                 
C 27.916642 57.656515 36.665328                                                 
H 25.809394 57.368979 49.609482                                                 
H 27.222507 59.901648 43.427104                                                 
C 27.875774 57.372140 49.669084                                                 
H 25.778984 52.945640 36.223191                                                 
H 27.329353 55.328854 29.073413                                                 
C 27.841708 52.928847 36.317671                                                 
H 25.812991 52.665002 49.919680                                                 
H 27.228657 55.256965 43.752097                                                 
C 27.881574 52.669663 49.898713                                                 
C 29.363932 41.340548 29.585771                                                 
C 29.215141 41.279869 36.762846                                                 
C 30.646825 43.697247 29.640636                                                 
C 31.881911 41.223601 36.800749                                                 
C 33.373899 38.938396 29.619048                                                 
C 33.272229 38.927355 36.753730                                                 
C 34.741922 41.341964 29.776331                                                 
C 35.946426 38.869473 36.862312                                                 
C 29.374723 46.049206 29.441765                                                 
C 29.166306 45.882001 36.724587                                                 
C 30.689844 48.360427 29.328144                                                 
C 31.892453 45.872917 36.824173                                                 
C 33.392495 43.683388 29.790361                                                 
C 33.244586 43.552483 36.833632                                                 
C 34.751425 46.030507 29.849572                                                 
C 35.955134 43.554745 36.826312                                                 
C 29.194142 41.268435 42.776759                                                 
C 29.338712 41.029155 50.481407                                                 
C 30.499885 43.614149 42.732129                                                 
C 32.026595 40.994605 50.468282                                                 
C 33.139374 38.869299 43.322425                                                 
C 33.437895 38.723882 50.594341                                                 
C 34.535423 41.225610 43.168323                                                 
C 36.091227 38.715303 50.566182                                                 
C 29.224907 45.964345 42.742287                                                 
C 29.231446 45.666973 50.142932                                                 
C 30.532629 48.281775 42.811760                                                 
C 31.970426 45.675350 50.022728                                                 
C 33.223026 43.571101 42.945722                                                 
C 33.347498 43.367097 50.150868                                                 
C 34.593236 45.906597 42.956079                                                 
C 36.051796 43.389025 49.979607                                                 
C 41.510471 39.036272 29.794525                                                 
C 41.369605 38.878063 36.863426                                                 
C 42.850047 41.374492 30.110765                                                 
C 44.063476 38.867090 36.781919                                                 
C 41.311611 38.848199 43.055213                                                 
C 41.489737 38.758911 49.995136                                                 
C 42.671780 41.186167 43.068687                                                 
C 44.166972 38.763197 49.732921                                                 
C 37.457790 41.347715 29.873881                                                 
C 37.313961 41.235558 36.855836                                                 
C 38.792862 43.694135 30.096992                                                 
C 40.012700 41.215960 36.823098                                                 
C 37.257566 41.206861 43.206682                                                 
C 37.429244 41.087656 50.182223                                                 
C 38.624543 43.538105 43.100819                                                 
C 40.113080 41.076236 49.896720                                                 
C 41.525721 34.349808 29.475388                                                 
C 41.380372 34.225795 36.969627                                                 
C 42.888750 36.705462 29.576845                                                 
C 44.057029 34.161671 36.815842                                                 
C 41.313814 34.147532 42.907841                                                 
C 41.496659 34.097188 50.105665                                                 
C 42.683049 36.500048 42.980825                                                 
C 44.159632 34.051639 49.795078                                                 
C 37.465465 36.623462 29.515392                                                 
C 37.325690 36.558873 36.763051                                                 
C 38.826517 39.008568 29.713290                                                 
C 40.011816 36.497797 36.923494                                                 
C 37.231340 36.451662 43.283847                                                 
C 37.475829 36.434129 50.368591                                                 
C 38.609329 38.845832 43.198354                                                 
C 40.144855 36.381339 50.320687                                                 
C 41.488122 48.379758 30.354502                                                 
C 41.351355 48.214440 36.595290                                                 
C 42.831081 50.719942 30.416535                                                 
C 44.046705 48.203828 36.473544                                                 
C 41.345987 48.197802 43.138970                                                 
C 41.400035 48.080878 49.336232                                                 
C 42.703829 50.531447 43.284474                                                 
C 44.100598 48.099900 49.288774                                                 
C 29.390417 55.344323 29.236286                                                 
C 29.160796 55.303514 36.504124                                                 
C 30.665997 57.691445 29.334446                                                 
C 31.909666 55.290923 36.610042                                                 
C 33.425939 53.045178 29.566383                                                 
C 33.257185 52.917250 36.571334                                                 
C 34.746894 55.380740 29.757312                                                 
C 35.957602 52.906045 36.603048                                                 
C 29.294064 55.253113 43.617743                                                 
C 29.160828 54.996704 49.718270                                                 
C 30.584816 57.578932 43.430591                                                 
C 31.902495 55.032849 49.677776                                                 
C 33.296200 52.919544 43.328203                                                 
C 33.268269 52.697321 49.670350                                                 
C 34.636005 55.246245 43.263496                                                 
C 35.968974 52.718562 49.526193                                                 
C 37.444598 50.713158 30.073766                                                 
C 37.302134 50.562499 36.627578                                                 
C 38.782749 53.052637 30.173058                                                 
C 39.992090 50.555263 36.546251                                                 
C 37.316193 50.560624 43.100766                                                 
C 37.335019 50.392694 49.463891                                                 
C 38.663896 52.897466 43.154556                                                 
C 40.034559 50.410058 49.343754                                                 
C 41.490657 43.703763 30.231473                                                 
C 41.362840 43.552887 36.768544                                                 
C 42.834520 46.040742 30.383217                                                 
C 44.063684 43.544468 36.701567                                                 
C 41.326880 43.528582 43.079814                                                 
C 41.436693 43.414575 49.569268                                                 
C 42.687564 45.857353 43.145268                                                 
C 44.132252 43.428273 49.452870                                                 
C 29.410571 50.698919 29.328852                                                 
C 29.121680 50.551914 36.435988                                                 
C 30.700838 53.038380 29.211761                                                 
C 31.892011 50.553464 36.563326                                                 
C 33.420757 48.362811 29.643163                                                 
C 33.249323 48.223088 36.743440                                                 
C 34.753837 50.707736 29.774900                                                 
C 35.951903 48.222110 36.726001                                                 
C 29.258027 50.593023 43.266280                                                 
C 29.179909 50.360415 50.006241                                                 
C 30.573220 52.924483 43.594018                                                 
C 31.932398 50.373113 49.849763                                                 
C 33.268713 48.246719 42.941184                                                 
C 33.301940 48.041447 49.827800                                                 
C 34.621157 50.573971 43.119039                                                 
C 36.001356 48.049853 49.615747                                                 
C 37.448059 46.030748 30.074920                                                 
C 37.300458 45.894503 36.774489                                                 
C 38.802951 48.376328 30.171178                                                 
C 40.007248 45.889172 36.734369                                                 
C 37.292888 45.883420 43.039294                                                 
C 37.367183 45.727755 49.654939                                                 
C 38.654953 48.212368 43.061604                                                 
C 40.066502 45.739703 49.490694                                                 
C 45.526036 32.056738 29.793925                                                 
C 45.441402 31.856389 36.660351                                                 
C 46.927872 34.355131 29.918175                                                 
C 48.016159 31.840765 36.312964                                                 
H 49.050926 30.051393 36.200002                                                 
H 50.592798 32.588599 30.163896                                                 
C 45.563452 36.702320 29.871679                                                 
C 45.407884 36.509462 36.669998                                                 
C 46.888727 39.036813 30.142665                                                 
C 48.070447 36.493392 36.337197                                                 
C 49.565595 34.381712 30.104442                                                 
C 49.414285 34.133656 36.122618                                                 
C 50.938313 36.648217 30.225410                                                 
C 52.084668 34.163559 35.948190                                                 
C 45.324166 31.874780 43.101482                                                 
C 45.571559 31.765867 49.658132                                                 
C 46.708518 34.160831 43.208059                                                 
C 48.216870 31.770941 49.593959                                                 
H 49.251260 29.982782 49.538671                                                 
H 50.404384 32.406355 43.499323                                                 
C 45.364240 36.501460 43.099274                                                 
C 45.533449 36.420688 49.695322                                                 
C 46.708460 38.839861 43.155587                                                 
C 48.227399 36.431154 49.648065                                                 
C 49.375260 34.196355 43.389686                                                 
C 49.629543 34.070365 49.672530                                                 
C 50.738823 36.462378 43.425430                                                 
C 52.278688 34.127503 49.887919                                                 
H 53.096441 32.365284 35.820325                                                 
H 53.321818 32.341953 49.901566                                                 
C 57.651601 39.053156 29.824522                                                 
C 57.554922 38.781746 36.213778                                                 
C 58.989423 41.345116 29.519130                                                 
C 60.206349 38.841890 36.639235                                                 
C 57.506163 38.832325 42.976922                                                 
C 57.654174 38.803387 50.267547                                                 
C 58.907876 41.136897 42.830800                                                 
C 60.335767 38.905482 50.287822                                                 
C 45.532605 46.048477 30.464437                                                 
C 45.402195 45.875821 36.544669                                                 
C 46.881453 48.385484 30.512717                                                 
C 48.105527 45.860773 36.405596                                                 
C 49.578024 43.719175 30.443279                                                 
C 49.453405 43.519739 36.461115                                                 
C 50.932893 46.052393 30.467331                                                 
C 52.155771 43.501418 36.436469                                                 
C 45.386570 45.848803 43.305116                                                 
C 45.466401 45.772399 49.338358                                                 
C 46.746570 48.175503 43.470760                                                 
C 48.165352 45.788772 49.374048                                                 
C 49.424819 43.492246 43.391286                                                 
C 49.528544 43.458126 49.496551                                                 
C 50.801098 45.826263 43.589736                                                 
C 52.219679 43.473981 49.652908                                                 
C 53.635780 41.379985 30.254754                                                 
C 53.489236 41.159030 36.392903                                                 
C 54.976815 43.711265 30.174271                                                 
C 56.195769 41.156106 36.459661                                                 
C 53.473919 41.177438 43.170800                                                 
C 53.571739 41.142034 49.908151                                                 
C 54.851194 43.503222 43.161836                                                 
C 56.282791 41.166611 50.114231                                                 
H 57.201231 34.723169 35.624476                                                 
H 58.688598 37.265279 29.770626                                                 
H 57.352021 34.714660 50.225179                                                 
H 58.519135 37.026612 43.025761                                                 
C 45.535266 41.377563 30.239095                                                 
C 45.417698 41.206814 36.693186                                                 
C 46.881923 43.712689 30.419750                                                 
C 48.100981 41.187293 36.554014                                                 
C 49.566769 39.026617 30.288765                                                 
C 49.439880 38.836956 36.380114                                                 
C 50.932023 41.373368 30.379658                                                 
C 52.129948 38.815300 36.260475                                                 
C 45.363822 41.178859 43.120811                                                 
C 45.501070 41.098822 49.536438                                                 
C 46.726852 43.507379 43.280267                                                 
C 48.197443 41.110876 49.541381                                                 
C 49.393818 38.835720 43.264732                                                 
C 49.561552 38.783365 49.681752                                                 
C 50.768830 41.160318 43.267234                                                 
C 52.241183 38.790286 49.906354                                                 
C 53.619594 36.710560 30.120296                                                 
C 53.493326 36.437242 35.931652                                                 
C 55.007342 38.993687 30.117926                                                 
C 56.168498 36.498461 35.826911                                                 
C 53.435968 36.504624 43.158811                                                 
C 53.623636 36.409757 50.066867                                                 
C 54.827514 38.816423 43.075810                                                 
C 56.297703 36.492740 50.214542                                                 
H 61.225363 37.047129 36.664320                                                 
H 62.697817 39.619406 29.268929                                                 
H 61.385851 37.125431 50.278486                                                 
H 62.590738 39.393898 42.616423                                                 
H 28.241533 61.696821 37.115326                                                 
H 28.154255 61.450577 49.753138                                                 
C 29.370772 60.041597 29.221432                                                 
C 29.255427 59.907843 36.919849                                                 
C 30.664885 62.337991 29.321299                                                 
C 31.936859 59.956915 36.963821                                                 
C 33.383942 57.716544 29.601082                                                 
C 33.275885 57.601849 36.774747                                                 
C 34.711675 60.055432 29.665724                                                 
C 35.978758 57.588250 36.702115                                                 
H 29.627005 64.121268 29.213819                                                 
H 32.312672 64.041145 36.957277                                                 
C 33.351939 62.431823 29.469945                                                 
C 33.329979 62.247034 36.815630                                                 
C 34.725927 64.730074 29.499450                                                 
C 35.999423 62.283131 36.834895                                                 
C 29.289332 59.928488 43.351431                                                 
C 29.187870 59.661005 49.753652                                                 
C 30.571559 62.185459 43.190238                                                 
C 31.881689 59.742700 49.888082                                                 
C 33.283069 57.584069 43.277307                                                 
C 33.241783 57.368817 49.750504                                                 
C 34.611589 59.910094 43.129635                                                 
C 35.954742 57.384340 49.763241                                                 
H 29.538805 63.975983 43.149589                                                 
H 32.207714 63.799395 50.340858                                                 
C 33.255669 62.267056 43.114052                                                 
C 33.244863 62.013467 50.220760                                                 
C 34.620521 64.572289 43.200943                                                 
C 35.910458 62.052168 50.403148                                                 
C 41.464395 57.730002 30.234841                                                 
C 41.368173 57.568604 36.479929                                                 
C 42.805809 60.069334 30.198587                                                 
C 44.064795 57.566427 36.457216                                                 
C 41.374614 57.579737 43.216762                                                 
C 41.346143 57.421197 49.568468                                                 
C 42.729835 59.909909 43.222289                                                 
C 44.044643 57.445734 49.486988                                                 
C 37.427386 60.068704 29.860220                                                 
C 37.340684 59.903666 36.693569                                                 
C 38.772513 62.410453 29.824481                                                 
C 40.031805 59.904058 36.518347                                                 
C 37.327776 59.916578 43.126151                                                 
C 37.289912 59.701881 50.014538                                                 
C 38.673419 62.255383 43.211956                                                 
C 39.984360 59.738743 49.867197                                                 
C 41.477885 53.055258 30.341740                                                 
C 41.338323 52.893183 36.410749                                                 
C 42.820274 55.393243 30.357007                                                 
C 44.047239 52.888451 36.218966                                                 
C 41.358742 52.889539 43.249728                                                 
C 41.372473 52.754584 49.325112                                                 
C 42.718300 55.238783 43.308394                                                 
C 44.073512 52.776159 49.284911                                                 
C 37.430881 55.392001 30.037101                                                 
C 37.310061 55.237838 36.599038                                                 
C 38.771739 57.729677 30.079500                                                 
C 40.004521 55.233018 36.503000                                                 
C 37.331337 55.242273 43.167207                                                 
C 37.308267 55.058700 49.540427                                                 
C 38.680477 57.576654 43.161408                                                 
C 40.009234 55.079871 49.453090                                                 
C 41.403347 67.112006 30.046506                                                 
C 41.432910 66.859900 36.172843                                                 
C 42.820259 69.404277 30.168032                                                 
C 44.089063 66.898084 36.415307                                                 
C 41.363772 66.971245 43.351362                                                 
C 41.284890 66.692475 50.529237                                                 
C 42.792459 69.252200 43.274917                                                 
C 43.943409 66.751749 50.584911                                                 
H 37.722929 68.857996 29.756217                                                 
H 40.409887 68.652964 36.055461                                                 
H 37.659258 68.729372 43.392882                                                 
H 40.240243 68.468025 50.718864                                                 
C 41.450142 62.402232 30.044878                                                 
C 41.404481 62.226561 36.369960                                                 
C 42.794076 64.746718 30.092923                                                 
C 44.086105 62.224389 36.481291                                                 
C 41.380807 62.244304 43.263811                                                 
C 41.322665 62.069710 50.062119                                                 
C 42.748304 64.595820 43.263171                                                 
C 44.000406 62.095441 49.961325                                                 
H 33.686920 66.514568 29.422586                                                 
H 33.570318 66.349681 43.274885                                                 
C 37.401382 64.795317 29.635389                                                 
C 37.372441 64.556237 36.493876                                                 
C 38.757176 67.068029 29.788796                                                 
C 40.052260 64.592889 36.156516                                                 
C 37.287521 64.650356 43.264461                                                 
C 37.278815 64.334739 50.464963                                                 
C 38.682212 66.935858 43.361092                                                 
C 39.937488 64.408049 50.361838                                                 
C 61.677446 41.415064 29.374417                                                 
C 61.494551 41.109260 37.041778                                                 
C 62.996267 43.679021 29.381760                                                 
H 63.528927 41.091721 37.370869                                                 
C 61.731776 46.035683 29.532970                                                 
C 61.529360 45.823847 37.100313                                                 
C 63.051680 48.373201 29.581724                                                 
H 63.585532 45.811487 37.291465                                                 
H 65.061428 43.676851 29.272439                                                 
C 61.576963 41.193476 42.717134                                                 
C 61.617938 41.190953 50.349563                                                 
C 62.921691 43.472548 42.822152                                                 
H 63.685671 41.220122 50.426587                                                 
C 61.662310 45.849216 42.879628                                                 
C 61.599454 45.893306 50.229618                                                 
C 62.953929 48.196734 42.922525                                                 
H 63.663793 45.911670 50.385417                                                 
H 64.985923 43.450840 42.752565                                                 
C 61.798119 55.416968 29.914569                                                 
C 61.538194 55.172470 37.109406                                                 
C 63.054006 57.789637 30.015882                                                 
H 63.604727 55.172103 37.194529                                                 
H 65.153838 53.054190 29.697703                                                 
C 61.636132 55.222998 42.788420                                                 
C 61.576929 55.204202 49.932887                                                 
C 62.916425 57.574801 42.890066                                                 
H 63.643874 55.202775 50.005177                                                 
H 65.025809 52.896732 42.822541                                                 
C 61.789501 50.716365 29.739775                                                 
C 61.540650 50.497196 36.981077                                                 
C 63.090006 53.057967 29.798139                                                 
H 65.112835 48.351116 29.433450                                                 
C 61.672877 50.552306 42.799169                                                 
C 61.567508 50.551610 50.098312                                                 
C 62.954958 52.888396 42.820906                                                 
H 65.017376 48.176162 42.886749                                                 
H 41.789767 71.194530 30.217384                                                 
H 44.445626 70.972621 36.439042                                                 
H 41.773131 71.047836 43.354734                                                 
H 44.270996 70.838974 50.778781                                                 
C 45.465269 69.397458 30.173084                                                 
C 45.483814 69.189264 36.563398                                                 
H 46.505139 71.181960 30.234820                                                 
C 48.067469 69.200694 36.850817                                                 
C 49.541066 67.051108 29.845747                                                 
C 49.476456 66.911843 36.987333                                                 
H 50.579736 68.839431 29.800796                                                 
C 52.153623 66.874873 37.054795                                                 
H 49.103036 70.988865 36.952058                                                 
C 45.419005 69.225996 43.076351                                                 
C 45.331746 69.069813 50.635026                                                 
H 46.463999 71.006646 43.005542                                                 
C 47.939763 69.107293 50.505715                                                 
C 49.482670 66.864974 42.851682                                                 
C 49.368663 66.839946 50.347543                                                 
H 50.512727 68.652063 42.708115                                                 
C 52.050728 66.837575 50.280290                                                 
H 48.958507 70.906470 50.551927                                                 
H 57.276538 66.291864 37.114325                                                 
H 57.167471 66.349470 50.439037                                                 
H 53.180619 68.668319 37.119348                                                 
H 53.049586 68.643185 50.410465                                                 
C 57.617722 62.423358 29.900260                                                 
C 57.584690 62.205436 37.119908                                                 
H 58.632603 64.224605 29.857356                                                 
C 60.273502 62.117010 37.064413                                                 
C 57.546017 62.153685 42.830893                                                 
C 57.557781 62.278364 49.944241                                                 
H 58.582758 63.940204 42.659998                                                 
C 60.240972 62.204450 49.764692                                                 
C 53.566301 64.712936 29.766507                                                 
C 53.549591 64.588672 37.062784                                                 
C 56.225152 64.511451 37.074227                                                 
C 53.515544 64.512891 42.894380                                                 
C 53.466141 64.582713 50.159969                                                 
C 56.152182 64.564135 50.214646                                                 
C 61.706104 60.085734 30.110956                                                 
C 61.548455 59.853145 37.022987                                                 
H 62.730127 61.877288 30.187931                                                 
H 63.616918 59.823760 37.025112                                                 
H 65.119857 57.805695 30.023004                                                 
H 61.310598 63.908783 37.091114                                                 
C 61.597526 59.814186 42.941682                                                 
C 61.568150 59.903461 49.629429                                                 
H 62.612397 61.613125 42.972518                                                 
H 63.630224 59.905663 49.516499                                                 
H 64.985309 57.564813 42.890174                                                 
H 61.275518 63.993744 49.759935                                                 
H 63.631697 50.563134 50.242450                                                 
H 36.447397 34.641893 50.481432                                                 
H 36.238219 66.112883 50.653849                                                 
H 27.190880 50.602283 43.328758                                                 
H 54.545064 66.287448 42.596984                                                 
H 63.599555 50.488891 37.175532                                                 
H 54.484911 34.724332 43.318298                                                 
H 36.313380 34.752282 36.556167                                                 
H 36.339983 66.346979 36.497842                                                 
H 54.593938 66.507350 29.685056                                                 
H 27.345910 50.700518 29.206645                                                 
H 54.649055 34.920172 30.073466                                                 
Li 32.058257 41.391662 26.378402                                                
Li 30.724408 47.720659 33.182892                                                
Li 59.060227 59.791531 53.018956                                                
Li 35.967079 38.643767 33.067800                                                
Li 60.405106 57.935781 26.767973                                                
Li 42.443638 36.283528 33.416896                                                
Li 30.445559 57.288128 53.044434                                                
Li 35.814930 62.318523 46.594063                                                
Li 46.981523 33.999523 52.975845                                                
Li 30.263695 48.003544 46.602066                                                
Li 52.201617 39.038540 26.927001                                                
Li 35.746649 38.909507 46.751282                                                
Li 44.125280 67.186028 26.814476                                                
Li 35.896587 62.766219 33.039255                                                
Li 30.534603 53.155513 33.054980                                                
Li 40.322412 36.145549 46.478846                                                
Li 55.226377 38.553355 46.759643                                                
Li 60.532935 48.200429 46.379474                                                
Li 44.316445 67.005890 46.654988                                                
Li 50.649100 64.974315 46.638139                                                
Li 50.787971 64.949807 33.533024                                                
Li 40.016960 64.891560 39.919298                                                
Li 60.436335 53.276453 46.267331                                                
Li 50.681484 36.057227 39.592478                                                
Li 30.730637 42.280686 46.648110                                                
Li 60.867125 47.988284 33.268589                                                
Li 55.338450 62.176196 33.601736                                                
Li 60.797885 53.138199 33.370118                                                
Li 60.372321 43.125593 46.363200                                                
Li 30.170463 53.016574 39.846832                                                
Li 55.740201 63.471524 46.388567                                                
Li 55.357664 38.012502 39.438612                                                
Li 31.432703 60.010840 32.974482                                                
Li 44.343509 52.941214 40.027695                                                
Li 59.359155 41.436038 33.327052                                                
Li 50.897327 47.199937 39.896789                                                
Li 34.529685 36.526707 39.803405                                                
Li 44.242920 46.492560 39.993600                                                
%ENDBLOCK POSITIONS_ABS                                                         

--------------------------------------------------------------------------------
-------------------------------- END INPUT FILE --------------------------------
--------------------------------------------------------------------------------


 
<<<<<<<<<<<<<<<<<<<<<<<<<<<<<<<<< Full system >>>>>>>>>>>>>>>>>>>>>>>>>>>>>>>>>>
<<<<<<<<<<<<<<<<<<<<<<<<<<< PAW Dataset information >>>>>>>>>>>>>>>>>>>>>>>>>>>
File: ~/pp/paw/c_pbe_abinit.paw; rc = 1.25 bohr; shape type =  3; rshape = 1.25 bohr;
  Atomic number:  6;  ionic charge:  4.000000
    Partial Wave 1: l = 0
    Partial Wave 2: l = 0
    Partial Wave 3: l = 1
    Partial Wave 4: l = 1
  Core charge supplied for Nonlinear Core Corrections
File: ~/pp/paw/h_pbe_abinit.paw; rc = 0.90 bohr; shape type =  3; rshape = 0.90 bohr;
  Atomic number:  1;  ionic charge:  1.000000
    Partial Wave 1: l = 0
    Partial Wave 2: l = 0
File: ~/pp/paw/li_pbe_abinit.paw; rc = 1.42 bohr; shape type =  3; rshape = 1.42 bohr;
  Atomic number:  3;  ionic charge:  3.000000
    Partial Wave 1: l = 0
    Partial Wave 2: l = 0
    Partial Wave 3: l = 0
    Partial Wave 4: l = 1
    Partial Wave 5: l = 1
<<<<<<<<<<<<<<<<<<<<<<<<<<<<<<<<<<<<<<< >>>>>>>>>>>>>>>>>>>>>>>>>>>>>>>>>>>>>>>

-------------------------- Atom counting information ---------------------------
Symbol    Natoms    Nngwfs    Nprojs
  C        484      1936      3872
  H        108       108       216
  Li        38       190       342
.......   ......    ......    ......
Totals:    630      2234      4430
--------------------------------------------------------------------------------

=============================== PSINC grid sizes ===============================
                      Simulation cell:  189 x 189 x 189
                              FFT-box:  117 x 117 x 117
                                  PPD:    7 x   7 x   1
Grid space d1=  0.499927596032a0 (KE cutoff=  30.39413Eh = 827.06648eV)
Grid space d2=  0.499927596032a0 (KE cutoff=  30.39413Eh = 827.06648eV)
Grid space d3=  0.499927596032a0 (KE cutoff=  30.39413Eh = 827.06648eV)
================================================================================
  
WARNING in cell_grid_distribute:
Average of less than one 23-slab per node, so workload cannot be
equally balanced between nodes.

********************* Fourier parallelisation information **********************
       Coarse grid (whole simulation cell) dimensions:    189   189   189
          Real-space ('12') slabs/node (min max mean):      1     2     1
         Recip-space ('23') slabs/node (min max mean):      0     1     0
********************************************************************************

********************* Fourier parallelisation information **********************
       Double grid (whole simulation cell) dimensions:    378   378   378
          Real-space ('12') slabs/node (min max mean):      2     3     2
         Recip-space ('23') slabs/node (min max mean):      1     2     1
********************************************************************************

Atom SCF Calculation for C  : Z (AE atom) =   6 : Z (PS atom) =   4
Config String: 2s2 2p2
Orbitals (num,occ):  2     2.00 2.00
Orbitals   (num,l):  2        0    1
Real-space Grid (nr,dr,rmax): 1377    0.0065406977    9.0000000000
Spherical Bessel Basis (nsws,lmax,cutoff):   37    2  183.0099912382
Confining potential (l,width,scale):  0    3.0000000000  100.0000000000
Confining potential (l,width,scale):  1    3.0000000000  100.0000000000
  1         -5.4350126632   -1.2715272878    4.5135247139   -1.5681949477
  2         -5.3876836850   -1.3562195125    4.4235426751   -1.5380057521
  3         -5.3928844498   -1.3758175853    4.4021699684   -1.5318377811
  4         -5.3988962903   -1.3800385428    4.3975423583   -1.5307324410
  5         -5.4018428823   -1.3823489590    4.3950111904   -1.5301555648
  6         -5.4033571720   -1.3835805046    4.3936635548   -1.5298576834
  7         -5.4041480647   -1.3842324820    4.3929512000   -1.5297032953
  8         -5.4045641108   -1.3845769138    4.3925755232   -1.5296229456
  9         -5.4047838258   -1.3847587737    4.3923775340   -1.5295810042
 10         -5.4049001347   -1.3848548089    4.3922731819   -1.5295590658
 11         -5.4049618018   -1.3849055476    4.3922181562   -1.5295475724
 12         -5.4049945351   -1.3849323732    4.3921891206   -1.5295415432
 13         -5.4050119258   -1.3849465673    4.3921737867   -1.5295383767
 14         -5.4050211723   -1.3849540841    4.3921656816   -1.5295367119
 15         -5.4050260920   -1.3849580684    4.3921613935   -1.5295358358
 16         -5.4050287113   -1.3849601822    4.3921591228   -1.5295353742
 17         -5.4050301068   -1.3849613045    4.3921579192   -1.5295351307
 18         -5.4050308507   -1.3849619010    4.3921572806   -1.5295350022
 19         -5.4050312476   -1.3849622183    4.3921569415   -1.5295349343
 20         -5.4050314594   -1.3849623873    4.3921567612   -1.5295348984
 21         -5.4050315725   -1.3849624773    4.3921566653   -1.5295348794
 22         -5.4050316330   -1.3849625253    4.3921566143   -1.5295348693
Atom SCF converged after  22 iterations to a total energy of     -5.40503163

Atom SCF Calculation for H  : Z (AE atom) =   1 : Z (PS atom) =   1
Config String: 1s1
Orbitals (num,occ):  1     1.00
Orbitals   (num,l):  1        0
Real-space Grid (nr,dr,rmax): 1377    0.0065406977    9.0000000000
Spherical Bessel Basis (nsws,lmax,cutoff):   37    1  183.0099912382
Confining potential (l,width,scale):  0    3.0000000000  100.0000000000
  1         -0.3605254152   -0.2399954029    0.2820952946   -0.2424203210
  2         -0.4156854077   -0.2398249290    0.2871789324   -0.2464796203
  3         -0.4412552402   -0.2379720642    0.2899127187   -0.2499011370
  4         -0.4517265951   -0.2371980236    0.2908966173   -0.2514141636
  5         -0.4557775773   -0.2369735141    0.2911607883   -0.2519713623
  6         -0.4573363459   -0.2369240355    0.2912108681   -0.2521663171
  7         -0.4579443228   -0.2369187864    0.2912112833   -0.2522344454
  8         -0.4581858602   -0.2369215483    0.2912049187   -0.2522587615
  9         -0.4582834939   -0.2369242589    0.2912002081   -0.2522677042
 10         -0.4583235236   -0.2369258837    0.2911975892   -0.2522710965
 11         -0.4583401154   -0.2369267223    0.2911962825   -0.2522724192
 12         -0.4583470483   -0.2369271266    0.2911956643   -0.2522729467
 13         -0.4583499624   -0.2369273145    0.2911953803   -0.2522731607
 14         -0.4583511926   -0.2369274000    0.2911952521   -0.2522732486
 15         -0.4583517136   -0.2369274385    0.2911951948   -0.2522732850
 16         -0.4583519349   -0.2369274556    0.2911951693   -0.2522733002
 17         -0.4583520290   -0.2369274632    0.2911951581   -0.2522733066
Atom SCF converged after  17 iterations to a total energy of     -0.45835203

Atom SCF Calculation for Li : Z (AE atom) =   3 : Z (PS atom) =   3
Config String: 1s2 2s1 2p0
Orbitals (num,occ):  3     2.00 1.00 0.00
Orbitals   (num,l):  3        0    0    1
Real-space Grid (nr,dr,rmax): 1377    0.0065406977    9.0000000000
Spherical Bessel Basis (nsws,lmax,cutoff):   37    2  183.0099912382
Confining potential (l,width,scale):  0    3.0000000000  100.0000000000
Confining potential (l,width,scale):  1    3.0000000000  100.0000000000
  1         -6.0640888065   -4.6655401716    2.5388576516   -0.9989538799
  2         -6.9627542978   -4.0954079129    2.9808988108   -1.1965571426
  3         -7.2692687601   -3.8889996707    3.2029735703   -1.3193883705
  4         -7.3784440298   -3.8322099748    3.2868571989   -1.3711018151
  5         -7.4170278248   -3.8191968371    3.3144974220   -1.3911175539
  6         -7.4303549880   -3.8172386945    3.3228486489   -1.3986896266
  7         -7.4348052089   -3.8175483495    3.3251259310   -1.4015352495
  8         -7.4362242328   -3.8180607346    3.3256233205   -1.4026016384
  9         -7.4366459715   -3.8184145665    3.3256561549   -1.4029998726
 10         -7.4367560626   -3.8186169740    3.3256001574   -1.4031477379
 11         -7.4367765260   -3.8187239825    3.3255481763   -1.4032021548
 12         -7.4367751741   -3.8187782620    3.3255144587   -1.4032219192
 13         -7.4367707398   -3.8188051288    3.3254952336   -1.4032289600
 14         -7.4367680349   -3.8188156035    3.3254870176   -1.4032309087
 15         -7.4367661982   -3.8188217406    3.3254819951   -1.4032318132
 16         -7.4367650112   -3.8188253257    3.3254789583   -1.4032322224
 17         -7.4367642682   -3.8188274151    3.3254771375   -1.4032324006
 18         -7.4367638134   -3.8188286307    3.3254760529   -1.4032324736
 19         -7.4367635392   -3.8188293370    3.3254754103   -1.4032325004
 20         -7.4367633760   -3.8188297469    3.3254750310   -1.4032325080
 21         -7.4367632796   -3.8188299846    3.3254748079   -1.4032325082
Atom SCF converged after  21 iterations to a total energy of     -7.43676328

Determining parallel strategy ...
... using space-filling curve
... NGWF load balancing: max     16;  min     12;  average     14
... Projector load balancing: max     32;  min     24;  average     28
... done
Calculating Ewald energy ...
              Ewald: real-space energy =   36786.807367
        Ewald: reciprocal-space energy =   36496.613697
         Ewald: (sum_charge)**2 Energy =    2874.686264
         Ewald: (sum_charge**2) Energy =     253.912337
                          Ewald Energy =   70154.822463
======================= Empirical dispersion information =======================
Model : Grimme D2
Dispersion Correction Energy: -0.23620633E+01 Hartree
================================================================================
Basis initialisation ...... NGWF spheres initialised
... Projector spheres initialised
... NGWF tight boxes initialised
... Projector tight boxes initialised
... Tight-boxes gathered
... NGWF basis size (local,global):     281798  45063646
... PAW projector initialisation
... done

============================= Charge Augmentation ==============================
                           Aug box size:   13 x  13 x  13
================================================================================

========================== Sparse matrix information ===========================
                        Overlap matrix filling:  37.41%
                        Density kernel filling: 100.00%
              NGWF-Proj overlap matrix filling:  10.50%
                    Aug Overlap matrix filling:  41.89%
                    Hamiltonian matrix filling:  41.89%
                  NGWF diagonal matrix filling:   0.18%
                             KS matrix filling: 100.00% 
                           KSKS matrix filling: 100.00% 
================================================================================

Sparse matrix initialisation ... done
NGWF initialisation ...... done
============ Calculation of NGWF S^-1 using Hotelling algorithm ================ 
         Iteration  |  Frobenius norm and Maximum abs value    (of I-S*S_n^-1)   
               1       0.47002088E+02     0.99719827E+00
               2       0.46750948E+02     0.99440955E+00
               3       0.46281430E+02     0.98887023E+00
               4       0.45454397E+02     0.97793826E+00
               5       0.44133310E+02     0.95662009E+00
               6       0.42277796E+02     0.91591189E+00
               7       0.39942219E+02     0.84089372E+00
               8       0.37160697E+02     0.78923978E+00
               9       0.34064690E+02     0.77202234E+00
              10       0.30979349E+02     0.74875070E+00
              11       0.27911986E+02     0.73415231E+00
              12       0.24276994E+02     0.71406210E+00
              13       0.19528475E+02     0.68190156E+00
              14       0.13649000E+02     0.62494837E+00
              15       0.77700105E+01     0.53021686E+00
              16       0.38365923E+01     0.42704633E+00
              17       0.22089195E+01     0.34754606E+00
              18       0.13452048E+01     0.23861925E+00
              19       0.62951449E+00     0.14395800E+00
              20       0.17245503E+00     0.52434514E-01
              21       0.18863680E-01     0.69595707E-02
              22       0.31277810E-03     0.12267784E-03
              23       0.96616164E-07     0.38129965E-07
              24       0.62159572E-13     0.53290705E-14
================================================================================
Calculating core density ...
================================= Core Density =================================
               Core den box size:   21 x  21 x  21
================================================================================
 ... done
Up spin density kernel initialisation ...... done

Writing density kernel to file "38/592nano.dkn" ... done

>>> Optimising kernel for current NGWFs:

--------------------------- Ensemble-DFT optimisation --------------------------
Running ScaLAPACK on  160 processor(s).

--------------------------------------------------------------------------------
  Iter                              Commutator    Free_energy(A=E-TS)     DeltaA
#    0                          0.001219229572   -3103.71977641200874  -3.10E+03

Step                       =       0.381966011250
Energy                     =   -3103.682536184466
Entropy (-TS)              =      -0.037240227460
Free energy (A=E-TS)       =   -3103.719776412009
Est. 0K Energy 0.5*(E+A)   =   -3103.701156298237
Residual Non-orthogonality =       0.000000000000
Residual N_electrons       =      -0.000000000083

Spin          Integrated_Ne            Fermi_level     Delta_Fermi_level
   1      2157.999999999641        -0.230775297414             -2.31E-01

                           Spin 1          
     Orb      H-eigenvalues     Occupancies
       1 |    -1.8901127106    1.0000000000 | 
                          ------
    1075 |    -0.2391198901    0.9330813127 | 
    1076 |    -0.2369843399    0.8766044311 | 
    1077 |    -0.2338316947    0.7241485318 | 
    1078 |    -0.2326783844    0.6458730169 | 
    1079 |    -0.2308848569    0.5086481723 | 
                 - Gap at zero temperature -
    1080 |    -0.2289683700    0.3611024071 | 
    1081 |    -0.2272569554    0.2476836530 | 
    1082 |    -0.2269830922    0.2319231460 | 
    1083 |    -0.2256418343    0.1650643166 | 
    1084 |    -0.2253580867    0.1530833254 | 
                          ------
    2234 |     0.5554671947    0.0000000000 | 

                       |  Abs_value |  Threshold | Converged
     Delta_Free_energy |   3.10E+03 |   1.00E-06 |        No
     Delta_Energy      |   3.10E+03 |   1.00E-04 |        No
     Delta_Entropy     |   3.72E-02 |   1.00E-04 |        No
     Commutator        |   1.22E-03 |   1.00E-05 |        No
     Delta_Fermi_level |   2.31E-01 |   1.00E-03 |        No

  Line search of the free energy minimum:
  Step_type        Step             Free_energy   Predicted_free_energy
.   Initial    0.000000    -3103.71977641200874
.    Trial1    0.381966    -3102.99628829688800
.    Trial2    0.145898    -3104.46078799485531
. Quadratic    0.158921    -3104.48061565779017    -3104.46579775717373

--------------------------------------------------------------------------------
  Iter                              Commutator    Free_energy(A=E-TS)     DeltaA
#    1                          0.000819144326   -3104.48061565779017  -7.61E-01

Step                       =       0.158921140720
Energy                     =   -3104.441627009358
Entropy (-TS)              =      -0.038988648396
Free energy (A=E-TS)       =   -3104.480615657790
Est. 0K Energy 0.5*(E+A)   =   -3104.461121333574
Residual Non-orthogonality =       0.000000000000
Residual N_electrons       =      -0.000000000036

Spin          Integrated_Ne            Fermi_level     Delta_Fermi_level
   1      2157.999999999834        -0.216386133279              1.44E-02

                           Spin 1          
     Orb      H-eigenvalues     Occupancies
       1 |    -1.9147593700    1.0000000000 | 
                          ------
    1075 |    -0.2238650136    0.9138552937 | 
    1076 |    -0.2201589235    0.7669829543 | 
    1077 |    -0.2196248550    0.7354996489 | 
    1078 |    -0.2187460686    0.6781337972 | 
    1079 |    -0.2170884964    0.5552210132 | 
                 - Gap at zero temperature -
    1080 |    -0.2154265529    0.4248214522 | 
    1081 |    -0.2140219378    0.3215726475 | 
    1082 |    -0.2120318531    0.2018175729 | 
    1083 |    -0.2103181248    0.1282942338 | 
    1084 |    -0.2097184321    0.1085640197 | 
                          ------
    2234 |     0.5705903231    0.0000000000 | 

                       |  Abs_value |  Threshold | Converged
     Delta_Free_energy |   7.61E-01 |   1.00E-06 |        No
     Delta_Energy      |   7.59E-01 |   1.00E-04 |        No
     Delta_Entropy     |   1.75E-03 |   1.00E-04 |        No
     Commutator        |   8.19E-04 |   1.00E-05 |        No
     Delta_Fermi_level |   1.44E-02 |   1.00E-03 |        No

  Line search of the free energy minimum:
  Step_type        Step             Free_energy   Predicted_free_energy
.   Initial    0.000000    -3104.48061565779017
[...]
 C    55 -- C    61       -0.09      5.40965
 C     9 -- C   433       -0.09      5.40973
 C   346 -- C   376       -0.09      5.40979
 C   420 -- C   444       -0.08      5.40986
 C     8 -- C    14       -0.09      5.41005
 C   229 -- C   373       -0.09      5.41028
 C   258 -- C   408       -0.09      5.41033
 C   268 -- C   286       -0.09      5.41051
 C   434 -- C   448       -0.09      5.41064
 C   273 -- C   435       -0.09      5.41069
 C   247 -- C   355       -0.08      5.41081
 C   406 -- C   440       -0.09      5.41084
 C   188 -- C   286       -0.08      5.41092
 C   444 -- C   492       -0.08      5.41094
 C   198 -- C   224       -0.08      5.41102
 C   409 -- C   455       -0.09      5.41106
 C    99 -- C   121       -0.09      5.41111
 C   247 -- C   273       -0.09      5.41116
 C    34 -- C    52       -0.09      5.41145
 C   258 -- C   288       -0.09      5.41152
 C   221 -- C   243       -0.09      5.41164
 C    17 -- C   281       -0.08      5.41191
 C   477 -- C   485       -0.09      5.41229
 C   330 -- C   394       -0.09      5.41251
 C    48 -- C   126       -0.09      5.41274
 C     4 -- C    42       -0.09      5.41276
 C    86 -- C   482       -0.09      5.41279
 C     6 -- C   246       -0.08      5.41311
 C   479 -- C   491       -0.07      5.41318
 C    83 -- C    85       -0.08      5.41327
 C    88 -- C   547       -0.08      5.41336
 C    14 -- C   450       -0.09      5.41368
 C     8 -- C   350       -0.08      5.41369
 C   318 -- C   380       -0.08      5.41402
 C    62 -- C   368       -0.09      5.41422
 C   358 -- C   388       -0.09      5.41434
 C   201 -- C   303       -0.09      5.41437
 C    33 -- C    43       -0.09      5.41470
 C   431 -- C   441       -0.09      5.41491
 C    40 -- C    54       -0.09      5.41496
 C    97 -- C   123       -0.09      5.41506
 C    21 -- C   383       -0.09      5.41508
 C    39 -- C    45       -0.09      5.41537
 C   216 -- C   234       -0.08      5.41542
 C   241 -- C   279       -0.09      5.41547
 C   246 -- C   448       -0.08      5.41566
 C   256 -- C   290       -0.09      5.41570
 H   165 -- Li  602       -0.03      5.41572
 C    97 -- C   523       -0.07      5.41572
 C    60 -- C   362       -0.09      5.41590
 C   217 -- C   223       -0.09      5.41601
 C    75 -- C    77       -0.08      5.41602
 C     2 -- C   270       -0.08      5.41607
 C   408 -- C   416       -0.09      5.41624
 C   350 -- C   380       -0.09      5.41626
 C   143 -- C   219       -0.06      5.41637
 C   272 -- C   294       -0.09      5.41642
 C   202 -- C   208       -0.09      5.41662
 C    30 -- C   120       -0.09      5.41710
 H   586 -- Li  620       -0.02      5.41751
 C   111 -- C   121       -0.09      5.41752
 C   466 -- C   538       -0.10      5.41769
 C   262 -- C   292       -0.09      5.41775
 C    35 -- C   497       -0.08      5.41784
 C    85 -- C    95       -0.09      5.41793
 C    49 -- C   391       -0.08      5.41826
 C    72 -- C   102       -0.08      5.41838
 C    38 -- C    56       -0.08      5.41848
 C   427 -- C   445       -0.08      5.41865
 C    63 -- C   101       -0.09      5.41884
 C    80 -- C   538       -0.08      5.41928
 C    96 -- C   126       -0.09      5.41976
 C    36 -- C    50       -0.09      5.41990
 C   227 -- C   309       -0.09      5.42027
 C    80 -- C   556       -0.08      5.42033
 C   316 -- C   374       -0.09      5.42035
 C    65 -- C    91       -0.08      5.42065
 C    73 -- C    79       -0.08      5.42075
 C    27 -- C    29       -0.09      5.42100
 C    70 -- C   104       -0.08      5.42102
 C   175 -- C   256       -0.06      5.42143
 C   189 -- C   191       -0.08      5.42150
 C    35 -- C    41       -0.09      5.42155
 C   185 -- C   299       -0.09      5.42190
 C   353 -- C   359       -0.08      5.42205
 C    88 -- C   118       -0.09      5.42257
 C   430 -- C   480       -0.08      5.42297
 C   186 -- C   212       -0.08      5.42319
 C   237 -- C   275       -0.09      5.42319
 C   205 -- C   263       -0.08      5.42337
 C    67 -- C    89       -0.08      5.42364
 C   229 -- C   235       -0.09      5.42425
 C   242 -- C   328       -0.08      5.42490
 C   342 -- C   388       -0.08      5.42504
 C   338 -- C   380       -0.07      5.42528
 C   416 -- C   476       -0.08      5.42531
 C    53 -- C   395       -0.08      5.42590
 C    19 -- C   451       -0.08      5.42606
 C   285 -- C   287       -0.08      5.42633
 C   205 -- C   207       -0.09      5.42648
 C   181 -- C   287       -0.08      5.42791
 C    94 -- C   568       -0.07      5.42807
 C    61 -- C   387       -0.09      5.42812
 C   148 -- C   223       -0.06      5.42835
 C   212 -- C   230       -0.08      5.42852
 C     6 -- C   352       -0.08      5.42866
 C    77 -- C    91       -0.08      5.42876
 C   202 -- C   216       -0.08      5.42880
 C   231 -- C   241       -0.08      5.42887
 C    56 -- C   342       -0.09      5.42899
 C    40 -- C   102       -0.08      5.42904
 C    34 -- C   100       -0.08      5.42967
 C   422 -- C   430       -0.08      5.42969
 C    29 -- C   355       -0.08      5.42996
 C    38 -- C   104       -0.08      5.43044
 C   189 -- C   255       -0.08      5.43046
 C   445 -- C   467       -0.07      5.43109
 C   470 -- C   547       -0.09      5.43116
 C   357 -- C   367       -0.08      5.43123
 C    37 -- C   367       -0.09      5.43151
 C   413 -- C   441       -0.07      5.43220
 C    21 -- C    63       -0.08      5.43226
 C   182 -- C   220       -0.08      5.43234
 C   249 -- Li  630       -0.07      5.43243
 C   103 -- C   525       -0.08      5.43247
 C    17 -- C   453       -0.07      5.43326
 C   339 -- C   497       -0.09      5.43343
 C    79 -- C    89       -0.08      5.43378
 C   204 -- C   294       -0.07      5.43404
 C    45 -- C   359       -0.08      5.43520
 C   224 -- C   242       -0.08      5.43536
 C    36 -- C    98       -0.08      5.43549
 C    17 -- Li  630       -0.07      5.43669
 C   385 -- C   395       -0.08      5.43701
 C    25 -- C   249       -0.07      5.43795
 C   252 -- C   406       -0.09      5.43801
 C   293 -- C   295       -0.08      5.43814
 C   316 -- C   390       -0.08      5.43831
 Li  594 -- Li  607       -0.17      5.43967
 C    96 -- C   567       -0.08      5.44080
 C    87 -- C    93       -0.08      5.44211
 C    92 -- C   564       -0.08      5.44250
 C   440 -- C   488       -0.07      5.44333
 C   377 -- C   391       -0.08      5.44335
 C    84 -- C   567       -0.08      5.44446
 C   343 -- C   365       -0.07      5.44473
 C   423 -- C   489       -0.08      5.44508
 C    51 -- C   521       -0.08      5.44644
 C   319 -- C   361       -0.07      5.44673
 C    76 -- C   564       -0.07      5.44730
 C    39 -- C   506       -0.07      5.44893
 C    88 -- C   560       -0.07      5.44950
 C   368 -- C   394       -0.07      5.44986
 C   409 -- C   485       -0.07      5.44995
 C   253 -- C   413       -0.08      5.45012
 C   190 -- C   284       -0.08      5.45169
 C   220 -- C   238       -0.08      5.45247
 C   206 -- C   292       -0.07      5.45317
 C   183 -- C   237       -0.07      5.45388
 C   198 -- C   204       -0.08      5.45433
 C   185 -- C   235       -0.07      5.45436
 C    35 -- C   511       -0.07      5.45489
 C   333 -- C   365       -0.07      5.45687
 C   343 -- C   506       -0.08      5.45850
 C    99 -- C   521       -0.07      5.45946
 C   233 -- C   239       -0.07      5.46034
 C    55 -- C   525       -0.07      5.46072
 H   412 -- Li  606       -0.02      5.46084
 C    83 -- C   467       -0.08      5.46102
 C   481 -- C   489       -0.07      5.46106
 C   197 -- C   199       -0.08      5.46159
 C   364 -- C   390       -0.07      5.46349
 C    75 -- C   463       -0.08      5.46783
 C    52 -- C   338       -0.08      5.47032
 C   234 -- C   332       -0.08      5.47132
 C   199 -- C   241       -0.06      5.47141
 C    72 -- C   560       -0.08      5.47143
 C   260 -- C   420       -0.08      5.47324
 C    72 -- Li  615       -0.09      5.47764
 C   252 -- C   286       -0.06      5.47960
 C   201 -- C   239       -0.06      5.48378
 C   181 -- C   183       -0.08      5.48489
 C    67 -- C   511       -0.08      5.48576
 C   234 -- Li  608       -0.08      5.48690
 H   581 -- Li  610       -0.02      5.48701
 H   587 -- Li  616       -0.01      5.48857
 C    93 -- Li  623       -0.05      5.49001
 C    67 -- Li  619       -0.09      5.49047
 H   401 -- Li  625       -0.02      5.49297
 C   193 -- Li  594       -0.08      5.49404
 C   254 -- C   284       -0.06      5.50103
 C   488 -- Li  606       -0.07      5.50669
 H   131 -- Li  617       -0.02      5.51775
 H   370 -- Li  627       -0.03      5.52205
 C   210 -- Li  604       -0.06      5.53003
 H   174 -- Li  607       -0.02      5.55427
 H   146 -- Li  604       -0.02      5.55611
 H   398 -- Li  627       -0.02      5.56014
 H   132 -- Li  617       -0.02      5.56107
 C   355 -- Li  628       -0.05      5.56361
 H   591 -- Li  607       -0.02      5.56816
 H   147 -- Li  604       -0.02      5.57171
 H   583 -- Li  600       -0.02      5.57299
 H   509 -- Li  610       -0.02      5.57569
 C   203 -- Li  617       -0.06      5.57602
 H   505 -- Li  621       -0.02      5.57855
 H   371 -- Li  609       -0.02      5.59141
 H   400 -- H   496       -0.01      5.59273
 C   205 -- Li  622       -0.06      5.59824
 C     2 -- Li  630       -0.05      5.60041
 C   169 -- Li  625       -0.05      5.61497
 C    12 -- Li  626       -0.07      5.62546
 C   123 -- Li  619       -0.07      5.62655
 H   532 -- Li  611       -0.02      5.63030
 H   142 -- Li  596       -0.02      5.63072
 H   590 -- Li  613       -0.02      5.63189
 C    83 -- Li  612       -0.04      5.64484
 C     4 -- Li  628       -0.05      5.64756
 H   159 -- Li  602       -0.02      5.65083
 C   198 -- Li  604       -0.04      5.65708
 H   483 -- Li  606       -0.02      5.65801
 C   340 -- Li  624       -0.07      5.65987
 C    75 -- Li  613       -0.07      5.66146
==================================================


=================== Orbital energy and occupancy information ===================

      Total number of orbitals:    2234
        Occupancy sum (kernel):    1079.000000000
   Occupancy sum (eigenvalues):    1079.000000000
                 HOMO-LUMO gap:       0.002222260 Eh
                 Mid-gap level:      -0.065301377 Eh

                        Orbital | Energy (Eh) | Occupancy
                            1    -1.881952023   1.0000000
                        .......   ...........   .........
                         1071    -0.085269159   0.9964982
                         1072    -0.084222995   0.9950908
                         1073    -0.082627927   0.9919606
                         1074    -0.079683561   0.9798826
                         1075    -0.073864900   0.8857110
                         1076    -0.071592383   0.7900648
                         1077    -0.070406105   0.7214773
                         1078    -0.069777882   0.6808687
                         1079    -0.067666446   0.5225932
                         1080    -0.066412507   0.4227524
                        ....... -- gap at 0K -- .........
                         1081    -0.064190247   0.2674181
                         1082    -0.063426394   0.2214039
                         1083    -0.062178810   0.1607833
                         1084    -0.061939018   0.1514911
                         1085    -0.060494173   0.1013552
                         1086    -0.059067293   0.0669544
                         1087    -0.053715347   0.0130438
                         1088    -0.051621343   0.0067016
                         1089    -0.051449318   0.0064155
                         1090    -0.050258028   0.0043990
                        .......   ...........   .........
                         2234     0.780600802   0.0000000

================================================================================

===================== Writing canonical molecular orbitals =====================
| Orbital  Energy (eV)  Norm     |
| HOMO     -1.80717626  1.000000 | Writing "38/592nano_HOMO.cube" ... done
Writing "38/592nano_HOMO.dx" ... done
| LUMO     -1.74670549  1.000000 | Writing "38/592nano_LUMO.cube" ... done
Writing "38/592nano_LUMO.dx" ... done
================================================================================

================== Local Density of States (LDOS) calculation ==================
Writing "38/592nano_LDOS.txt" ...  done
================================================================================
 
===================== Density of States (DOS) calculation ======================
Writing "38/592nano_DOS.txt" ...  done
================================================================================
 
Writing bands to file "38/592nano.val_bands" ... done
 
================ Projected Density of States (pDOS) calculation ================
 
Constructing AM resolved functions  ...... done
Writing NGWF plot files in formats: CUBE DX ...  done
 
Performing overlap integrals ...  done
 
Computing pDOS weights ...  done
 
All bands spilling parameter =   3.25 %
Occupancy-weighted spilling parameter =   0.85 %
 
 => Outputting data for OptaDOS <=
 
Writing pDOS weights to file "38/592nano.val_pdos_bin" ... done
 
Writing band gradients to file "38/592nano.val_dome_bin" ... done
 
Writing Castep output cell file to "38/592nano-out.cell" ... done
 
 => Computing Gaussian smeared pDOS <= 
Writing "38/592nano_PDOS.txt" ...  done
 
 => Computing Occupancy-weighted Gaussian smeared pDOS <= 
Writing "38/592nano_occ_PDOS.txt" ...  done
  => Band centres: 
 S band centre of group 1:  -18.452149 eV
 P band centre of group 1:   -8.239096 eV
  Band centres done. <=
  => Integrated number of electrons in each AM band: 
 S num electrons of group 1:  605.954246
 P num electrons of group 1: 1533.742460
  Integrated number of electrons done. <=
================================================================================

------------------------------ TIMING INFORMATION ------------------------------
AVERAGE TIME:    8838.438s on    160 node(s)                                    
TOTAL TIME:      8838.439s on    160 node(s)                                    
================= AVERAGE TIMINGS FROM ALL NODES (CUMULATIVE) ==================
|| TAG                                    #calls    cpu time   %total  Gflops ||
|| work_imbalance                       :     1        0.00s   0.000%  ------ ||
|| paw_sphere_density_on_grid           :     1        0.01s   0.000%  ------ ||
|| sparse_set_to_garbage                :   159        0.01s   0.000%  ------ ||
|| paw_tcore_density                    :     1        0.01s   0.000%  ------ ||
|| basis_extract_function_from_box      :   390        0.02s   0.000%  ------ ||
|| paw_dij_hartree                      :   972        0.03s   0.000%  ------ ||
|| ngwfs_initialise_from_radial         :     2        0.04s   0.000%  ------ ||
|| density_init_guess_real              :     1        0.13s   0.001%  ------ ||
|| ewald_calculate_energy               :     1        0.13s   0.001%  ------ ||
|| paw_tcore_hartree_on_grid            :     1        0.38s   0.004%  ------ ||
|| paw_dataset_init                     :     3        0.44s   0.005%  ------ ||
|| pseudo_make_structure_factor         :     1        0.51s   0.006%  ------ ||
|| sparse_init                          :     1        0.96s   0.011%  ------ ||
|| dense_normal_eigensolve              :     1        1.08s   0.012%  ------ ||
|| restart_kernel_write                 :    15        1.11s   0.013%  ------ ||
|| paw_species_calc_proj_prec_mat       :     1        2.20s   0.025%  ------ ||
|| sparse_embed_hotelling_invert_embed  :    27        5.50s   0.062%  ------ ||
|| fourier_apply_box_pair               :   587        6.66s   0.075%  2.327k ||
|| sw_init                              :     1        7.55s   0.085%  ------ ||
|| ngwf_gradient_coeffs                 :    14        8.28s   0.094%  ------ ||
|| augmentation_screen_dij              :   727       13.16s   0.149%  ------ ||
|| basis_copy_function_to_box           : 14088       19.77s   0.224%  ------ ||
|| projectors_init_fftbox_recip         :    57       21.70s   0.246%  ------ ||
|| paw_dij_xc                           :   972       28.84s   0.326%  ------ ||
|| hartree_on_grid                      :   722       34.00s   0.385%  ------ ||
|| integrals_kinetic                    :    27       37.33s   0.422%  ------ ||
|| projectors_func_ovlp_box             :    28       40.02s   0.453%  ------ ||
|| hamiltonian_energy_components        :     3       45.91s   0.519%  ------ ||
|| function_ops_brappd_ketppd           :    56       54.48s   0.616%  ------ ||
|| eigenstates_pdos                     :     1       56.47s   0.639%  ------ ||
|| sparse_trace                         :  9074       58.17s   0.658%  ------ ||
|| augmentation_density_on_grid         :   722       65.08s   0.736%  ------ ||
|| aug_nonlocal_mat                     :   958       68.28s   0.773%  ------ ||
|| fourier_apply_cell_forward           :  3606       71.04s   0.804% 176.678 ||
|| fourier_apply_cell_backward          :  3607       77.75s   0.880% 161.479 ||
|| basis_dot_function_with_box          : 3.199M      88.07s   0.996%  ------ ||
|| eigenstates_calculate                :     1      108.39s   1.226%  ------ ||
|| restart_ngwfs_tightbox_output        :    13      125.07s   1.415%  ------ ||
|| xc_energy_potential                  :   721      135.53s   1.533%  ------ ||
|| dense_eigensolve                     :   691      219.12s   2.479%  ------ ||
|| sparse_product                       :  8013      227.91s   2.579%  ------ ||
|| basis_add_function_to_box            : 9.079M     235.42s   2.664%  ------ ||
|| integrals_locpot_mat_els_batch       :   245      321.94s   3.642%  ------ ||
|| projectors_gradient_batch            :    14      324.53s   3.672%  ------ ||
|| cell_grid_deposit_box_real           : 26039      354.47s   4.011%  ------ ||
|| cell_grid_extract_box_real           :  7791      380.78s   4.308%  ------ ||
|| projectors_grad_precond_batch        :    14      451.68s   5.110%  ------ ||
|| density_fftbox_deposit_to_cell       : 11552      632.98s   7.162%  ------ ||
|| density_batch_row_sums               :   722      838.57s   9.488%  ------ ||
|| edft_diag_ngwf_ham                   :   690      845.57s   9.567%  ------ ||
|| ngwf_gradient_build_batch            :    14      861.23s   9.744%  ------ ||
|| properties_calculate                 :     1      919.69s  10.406%  ------ ||
|| potential_apply_to_ngwf_batch        :   245      927.81s  10.497%  ------ ||
|| ngwf_gradient_batch                  :    14      930.10s  10.523%  ------ ||
|| ngwf_gradient_lnv                    :    14      943.77s  10.678%  ------ ||
|| fourier_apply_box                    : 44254      954.19s  10.796%  4.001k ||
|| density_fftbox_interpolate_multiply  : 11552     1129.32s  12.777%  ------ ||
|| integrals_locpot_dbl_grid            :   245     1264.40s  14.306%  ------ ||
|| edft_apply_smearing_operator         :   690     1440.96s  16.303%  ------ ||
|| density_batch_interp_deposit         :   722     2144.08s  24.259%  ------ ||
|| density_on_dbl_grid                  :   722     3044.42s  34.445%  ------ ||
|| hamiltonian_lhxc_calculate           :   717     3372.24s  38.154%  ------ ||
|| edft_calculate                       :    14     6218.23s  70.354%  ------ ||
|| ngwf_cg_optimise                     :     1     7902.89s  89.415%  ------ ||
|| total_time                           :     1     8838.44s 100.000%  ------ ||
================================================================================
Overhead of generating timer report: 
- 0 ms averaging over threads,
- 25 ms ensuring consistency across MPI ranks,
- 0 ms printing in order.

Job completed: 18-07-2020 17:31 (+0100)

