 +---------------------------------------------------------------+
 |                                                               |
 |        ####### #     # ####### ####### ####### ######         |
 |        #     # ##    # #          #    #       #     #        |
 |        #     # # #   # #          #    #       #     #        |
 |        #     # #  #  # #####      #    #####   ######         |
 |        #     # #   # # #          #    #       #              |
 |        #     # #    ## #          #    #       #              |
 |        ####### #     # #######    #    ####### #              |
 |                                                               |
 |        Linear-Scaling Ab Initio Total Energy Program          |
 |                                                               |
 |          Release for academic collaborators of ODG            |
 |                                             Version 5.3.2.12  |
 |                                                               |
 +---------------------------------------------------------------+
 |                                                               |
 |  Authors:                                                     |
 |  Jacek Dziedzic, Peter D. Haynes, Nicholas D. M. Hine,        |
 |  Arash. A. Mostofi, Mike C. Payne and Chris-Kriton Skylaris   |
 |                                                               |
 |  Contributors:                                                |
 |  J. Aarons, L. Andrinopoulos, P. W. Avraam, R. A. Bell,       |
 |  A. Bhandari, G. A. Bramley, R. J. Charlton, S. J. Clark,     |
 |  R. J. Clements, G. C. Constantinescu, F. Corsetti,           |
 |  N. Corsini, O. Dieguez, S. M. M. Dubois, K. K. B. Duff,      |
 |  J. M. Escartin, A. Greco, H. Helal, Q. O. Hill, L. P. Lee,   |
 |  J.-H. Li, E. B. Linscott, G. Moynihan, D. D. O`Regan,        |
 |  O. K. Okan, M. J. S. Phipps, C. J. Pickard,                  |
 |  J. C. A. Prentice, M. I. J. Probert, L. E. Ratcliff,         |
 |  M. Robinson, A. Ruiz Serrano, J. S. Spencer, E. W. Tait,     |
 |  G. Teobaldi, D. Turban, V. Vitale, K. A. Wilkinson,          |
 |  C. Weber, J. C. Womack, N. Yeung and T. J. Zuehlsdorff       |
 |                                                               |
 |                                   Copyright (c) 2004-2020     |
 |                                                               |
 |  Please cite:                                                 |
 |  "Introducing ONETEP: Linear-scaling density functional       |
 |   simulations on parallel computers".                         |
 |   C.-K. Skylaris, P. D. Haynes, A. A. Mostofi, M. C. Payne.   |
 |   J. Chem. Phys. 122 084119 (2005).                           |
 |                                                               |
 |          in all publications arising from your use of ONETEP. |
 |                                                               |
 +---------------------------------------------------------------+
 |                                                               |
 |   ONETEP is based on developments described in the following  |
 |   publications:                                               |
 |                                                               |
 |  "Nonorthogonal generalized Wannier function pseudopotential  |
 |   plane-wave method".                                         |
 |   C.-K. Skylaris, A. A. Mostofi, P. D. Haynes, O. Dieguez,    |
 |   M. C. Payne.                                                |
 |   Phys. Rev. B 66 035119 (2002).                              |
 |                                                               |
 |  "Preconditioned iterative minimization for linear-scaling    |
 |   electronic structure calculations".                         |
 |   A. A. Mostofi, P. D. Haynes, C.-K. Skylaris, M. C. Payne.   |
 |   J. Chem. Phys. 119(17), pp.8842-8848 (2003).                |
 |                                                               |
 |  "Total-energy calculations on a real space grid with         |
 |   localized functions and a plane-wave basis".                |
 |   A. A. Mostofi, C.-K. Skylaris, P. D. Haynes, M. C. Payne.   |
 |   Comput. Phys. Commun. 147, pp.788-802 (2002).               |
 |                                                               |
 |  "Accurate kinetic energy evaluation in electronic structure  |
 |   calculations with localized functions on real space grids"  |
 |   C.-K. Skylaris, A. A. Mostofi, P. D. Haynes, C. J. Pickard, |
 |   M. C. Payne.                                                |
 |   Comput. Phys. Commun. 140, pp.315-322 (2001).               |
 |                                                               |
 |  "Accurate ionic forces and geometry optimization in linear-  |
 |   scaling density-functional theory with local orbitals"      |
 |   N. D. M. Hine, M. Robinson, P. D. Haynes, C.-K. Skylaris,   |
 |   M. C. Payne, and A. A. Mostofi.                             |
 |   Phys. Rev. B 83 195102 (2011).                              |
 |                                                               |
 +---------------------------------------------------------------+

Job started: 21-02-2020 15:24 (-0000)
 
Reading parameters from file "3.1930128_GO_manual_4x64graphite.dat" ...

WARNING: "cutoff_energy" not specified, but "psinc_spacing" specified.
         Using the latter to set the KE cutoff energy to  732.32021eV,
         thus *overriding* the default.

... done

If your calculation crashes here, before "Checking processes and threads..."
is displayed, then your stack size is insufficient.
If so, use "ulimit -s unlimited" at runtime.
You can disable this check with "check_stack_size F".

Checking processes and threads...
   Determining the default number of threads...
      No default threads set at compilation time: defaulting to 1.
      OpenMP library call suggests 4 threads.
      Hybrid MPI-OpenMP compilation detected.
      Number of MPI processes > 1.
      OMP_NUM_THREADS environment variable present and
      its value matches the one obtained from the OpenMP library call.
      Using this value as default.
      Default threads: 4
      Default applies to threads_max and threads_num_fftboxes.
      Settings in the input file override this default.
   ... done

   Running with 40 MPI processes.
   There are 10 MPI processes running on the same node as the root process.
   Each MPI process is using: 
               1 threads for simulation cell FFTs.
               1 threads for parallel FFT box operations.
               4 threads for loops over batched FFT box operations.
               4 threads in other parallel regions.
... done

Basic input checks...
Resetting ngwf_cg_rotate to TRUE for EDFT calculations
... done

Reading geometry and species blocks from file "3.1930128_GO_manual_4x64graphite.dat" ...
    
  PSINC grid spacing along a1 set to   0.511215680000a0 from input file.
  PSINC grid spacing along a2 set to   0.531284090000a0 from input file.
  PSINC grid spacing along a3 set to   0.507053120000a0 from input file.
  Number of PPD points along a3 set to 1.  This is 
  the default value, it may have been provided also in the input file.
... done
 Writing xyz coordinates to file "3.1930128_GO_manual_4x64graphite.xyz" ... done


--------------------------------------------------------------------------------
---------------------------------- INPUT FILE ----------------------------------
--------------------------------------------------------------------------------

task : singlepoint                                                              
do_properties : true                                                            
dx_format T                                                                     
edft T                                                                          
output_detail VERBOSE                                                           
write_xyz T                                                                     
xc_functional AVV10S                                                            
PSINC_SPACING 0.51121568 0.53128409 0.50705312                                  
paw T                                                                           
pdos_max_l = 2                                                                  
dos_smear  0.1 eV                                                               
popn_calculate T                                                                
PDOS_PSEUDOATOMIC T                                                             
PDOS_REDUCE_SWS F                                                               
PDOS_CONSTRUCT_BASIS F                                                          
PDOS_LOWDIN T                                                                   
PDOS_ORTH_ATOM_BLOCKS F                                                         
PDOS_LCAO_OPTIMIZE F                                                            
pdos_optados_output T                                                           
homo_plot 0                                                                     
lumo_plot 0                                                                     
homo_dens_plot -1                                                               
lumo_dens_plot -1                                                               
%BLOCK SPECIES                                                                  
C C 6 4 9.0                                                                     
%ENDBLOCK SPECIES                                                               
%BLOCK SPECIES_POT                                                              
C "~/pp/paw/c_pbe_abinit.paw"                                                   
%ENDBLOCK SPECIES_POT                                                           
%BLOCK SPECIES_ATOMIC_SET                                                       
C "SOLVE conf=2s2 2p2"                                                          
%ENDBLOCK SPECIES_ATOMIC_SET                                                    
%BLOCK LATTICE_CART                                                             
32.21  0.00  0.00                                                               
0.00 18.59  0.00                                                                
0.00  0.00 60.34                                                                
%ENDBLOCK LATTICE_CART                                                          
%BLOCK POSITIONS_ABS                                                            
C  0.00  0.00  3.02                                                             
C  0.00  0.00 15.08                                                             
C  0.00  0.00 27.15                                                             
C  0.00  0.00 39.22                                                             
C  0.00  0.00 51.29                                                             
C  0.00  4.65  3.02                                                             
C  0.00  4.65 15.08                                                             
C  0.00  4.65 27.15                                                             
C  0.00  4.65 39.22                                                             
C  0.00  4.65 51.29                                                             
C  4.03  2.32  3.02                                                             
C  4.03  2.32 15.08                                                             
C  4.03  2.32 27.15                                                             
C  4.03  2.32 39.22                                                             
C  4.03  2.32 51.29                                                             
C  8.05  0.00  3.02                                                             
C  8.05  0.00 15.08                                                             
C  8.05  0.00 27.15                                                             
C  8.05  0.00 39.22                                                             
C  8.05  0.00 51.29                                                             
C  0.00  9.30  3.02                                                             
C  0.00  9.30 15.08                                                             
C  0.00  9.30 27.15                                                             
C  0.00  9.30 39.22                                                             
C  0.00  9.30 51.29                                                             
C  4.03  6.97  3.02                                                             
C  4.03  6.97 15.08                                                             
C  4.03  6.97 27.15                                                             
C  4.03  6.97 39.22                                                             
C  4.03  6.97 51.29                                                             
C  8.05  4.65  3.02                                                             
C  8.05  4.65 15.08                                                             
C  8.05  4.65 27.15                                                             
C  8.05  4.65 39.22                                                             
C  8.05  4.65 51.29                                                             
C 12.08  2.32  3.02                                                             
C 12.08  2.32 15.08                                                             
C 12.08  2.32 27.15                                                             
C 12.08  2.32 39.22                                                             
C 12.08  2.32 51.29                                                             
C 16.10  0.00  3.02                                                             
C 16.10  0.00 15.08                                                             
C 16.10  0.00 27.15                                                             
C 16.10  0.00 39.22                                                             
C 16.10  0.00 51.29                                                             
C  0.00 13.95  3.02                                                             
C  0.00 13.95 15.08                                                             
C  0.00 13.95 27.15                                                             
C  0.00 13.95 39.22                                                             
C  0.00 13.95 51.29                                                             
C  4.03 11.62  3.02                                                             
C  4.03 11.62 15.08                                                             
C  4.03 11.62 27.15                                                             
C  4.03 11.62 39.22                                                             
C  4.03 11.62 51.29                                                             
C  8.05  9.30  3.02                                                             
C  8.05  9.30 15.08                                                             
C  8.05  9.30 27.15                                                             
C  8.05  9.30 39.22                                                             
C  8.05  9.30 51.29                                                             
C 12.08  6.97  3.02                                                             
C 12.08  6.97 15.08                                                             
C 12.08  6.97 27.15                                                             
C 12.08  6.97 39.22                                                             
C 12.08  6.97 51.29                                                             
C 16.10  4.65  3.02                                                             
C 16.10  4.65 15.08                                                             
C 16.10  4.65 27.15                                                             
C 16.10  4.65 39.22                                                             
C 16.10  4.65 51.29                                                             
C 20.13  2.32  3.02                                                             
C 20.13  2.32 15.08                                                             
C 20.13  2.32 27.15                                                             
C 20.13  2.32 39.22                                                             
C 20.13  2.32 51.29                                                             
C 24.16  0.00  3.02                                                             
C 24.16  0.00 15.08                                                             
C 24.16  0.00 27.15                                                             
C 24.16  0.00 39.22                                                             
C 24.16  0.00 51.29                                                             
C  4.03 16.27  3.02                                                             
C  4.03 16.27 15.08                                                             
C  4.03 16.27 27.15                                                             
C  4.03 16.27 39.22                                                             
C  4.03 16.27 51.29                                                             
C  8.05 13.95  3.02                                                             
C  8.05 13.95 15.08                                                             
C  8.05 13.95 27.15                                                             
C  8.05 13.95 39.22                                                             
C  8.05 13.95 51.29                                                             
C 12.08 11.62  3.02                                                             
C 12.08 11.62 15.08                                                             
C 12.08 11.62 27.15                                                             
C 12.08 11.62 39.22                                                             
C 12.08 11.62 51.29                                                             
C 16.10  9.30  3.02                                                             
C 16.10  9.30 15.08                                                             
C 16.10  9.30 27.15                                                             
C 16.10  9.30 39.22                                                             
C 16.10  9.30 51.29                                                             
C 20.13  6.97  3.02                                                             
C 20.13  6.97 15.08                                                             
C 20.13  6.97 27.15                                                             
C 20.13  6.97 39.22                                                             
C 20.13  6.97 51.29                                                             
C 24.16  4.65  3.02                                                             
C 24.16  4.65 15.08                                                             
C 24.16  4.65 27.15                                                             
C 24.16  4.65 39.22                                                             
C 24.16  4.65 51.29                                                             
C 28.18  2.32  3.02                                                             
C 28.18  2.32 15.08                                                             
C 28.18  2.32 27.15                                                             
C 28.18  2.32 39.22                                                             
C 28.18  2.32 51.29                                                             
C 12.08 16.27  3.02                                                             
C 12.08 16.27 15.08                                                             
C 12.08 16.27 27.15                                                             
C 12.08 16.27 39.22                                                             
C 12.08 16.27 51.29                                                             
C 16.10 13.95  3.02                                                             
C 16.10 13.95 15.08                                                             
C 16.10 13.95 27.15                                                             
C 16.10 13.95 39.22                                                             
C 16.10 13.95 51.29                                                             
C 20.13 11.62  3.02                                                             
C 20.13 11.62 15.08                                                             
C 20.13 11.62 27.15                                                             
C 20.13 11.62 39.22                                                             
C 20.13 11.62 51.29                                                             
C 24.16  9.30  3.02                                                             
C 24.16  9.30 15.08                                                             
C 24.16  9.30 27.15                                                             
C 24.16  9.30 39.22                                                             
C 24.16  9.30 51.29                                                             
C 28.18  6.97  3.02                                                             
C 28.18  6.97 15.08                                                             
C 28.18  6.97 27.15                                                             
C 28.18  6.97 39.22                                                             
C 28.18  6.97 51.29                                                             
C 20.13 16.27  3.02                                                             
C 20.13 16.27 15.08                                                             
C 20.13 16.27 27.15                                                             
C 20.13 16.27 39.22                                                             
C 20.13 16.27 51.29                                                             
C 24.16 13.95  3.02                                                             
C 24.16 13.95 15.08                                                             
C 24.16 13.95 27.15                                                             
C 24.16 13.95 39.22                                                             
C 24.16 13.95 51.29                                                             
C 28.18 11.62  3.02                                                             
C 28.18 11.62 15.08                                                             
C 28.18 11.62 27.15                                                             
C 28.18 11.62 39.22                                                             
C 28.18 11.62 51.29                                                             
C 28.18 16.27  3.02                                                             
C 28.18 16.27 15.08                                                             
C 28.18 16.27 27.15                                                             
C 28.18 16.27 39.22                                                             
C 28.18 16.27 51.29                                                             
C  0.00  0.00  9.05                                                             
C  0.00  0.00 21.12                                                             
C  0.00  0.00 33.19                                                             
C  0.00  0.00 45.25                                                             
C  0.00  0.00 57.32                                                             
C  0.00  4.65  9.05                                                             
C  0.00  4.65 21.12                                                             
C  0.00  4.65 33.19                                                             
C  0.00  4.65 45.25                                                             
C  0.00  4.65 57.32                                                             
C  4.03  2.32  9.05                                                             
C  4.03  2.32 21.12                                                             
C  4.03  2.32 33.19                                                             
C  4.03  2.32 45.25                                                             
C  4.03  2.32 57.32                                                             
C  8.05  0.00  9.05                                                             
C  8.05  0.00 21.12                                                             
C  8.05  0.00 33.19                                                             
C  8.05  0.00 45.25                                                             
C  8.05  0.00 57.32                                                             
C  0.00  9.30  9.05                                                             
C  0.00  9.30 21.12                                                             
C  0.00  9.30 33.19                                                             
C  0.00  9.30 45.25                                                             
C  0.00  9.30 57.32                                                             
C  4.03  6.97  9.05                                                             
C  4.03  6.97 21.12                                                             
C  4.03  6.97 33.19                                                             
C  4.03  6.97 45.25                                                             
C  4.03  6.97 57.32                                                             
C  8.05  4.65  9.05                                                             
C  8.05  4.65 21.12                                                             
C  8.05  4.65 33.19                                                             
C  8.05  4.65 45.25                                                             
C  8.05  4.65 57.32                                                             
C 12.08  2.32  9.05                                                             
C 12.08  2.32 21.12                                                             
C 12.08  2.32 33.19                                                             
C 12.08  2.32 45.25                                                             
C 12.08  2.32 57.32                                                             
C 16.10  0.00  9.05                                                             
C 16.10  0.00 21.12                                                             
C 16.10  0.00 33.19                                                             
C 16.10  0.00 45.25                                                             
C 16.10  0.00 57.32                                                             
C  0.00 13.95  9.05                                                             
C  0.00 13.95 21.12                                                             
C  0.00 13.95 33.19                                                             
C  0.00 13.95 45.25                                                             
C  0.00 13.95 57.32                                                             
C  4.03 11.62  9.05                                                             
C  4.03 11.62 21.12                                                             
C  4.03 11.62 33.19                                                             
C  4.03 11.62 45.25                                                             
C  4.03 11.62 57.32                                                             
C  8.05  9.30  9.05                                                             
C  8.05  9.30 21.12                                                             
C  8.05  9.30 33.19                                                             
C  8.05  9.30 45.25                                                             
C  8.05  9.30 57.32                                                             
C 12.08  6.97  9.05                                                             
C 12.08  6.97 21.12                                                             
C 12.08  6.97 33.19                                                             
C 12.08  6.97 45.25                                                             
C 12.08  6.97 57.32                                                             
C 16.10  4.65  9.05                                                             
C 16.10  4.65 21.12                                                             
C 16.10  4.65 33.19                                                             
C 16.10  4.65 45.25                                                             
C 16.10  4.65 57.32                                                             
C 20.13  2.32  9.05                                                             
C 20.13  2.32 21.12                                                             
C 20.13  2.32 33.19                                                             
C 20.13  2.32 45.25                                                             
C 20.13  2.32 57.32                                                             
C 24.16  0.00  9.05                                                             
C 24.16  0.00 21.12                                                             
C 24.16  0.00 33.19                                                             
C 24.16  0.00 45.25                                                             
C 24.16  0.00 57.32                                                             
C  4.03 16.27  9.05                                                             
C  4.03 16.27 21.12                                                             
C  4.03 16.27 33.19                                                             
C  4.03 16.27 45.25                                                             
C  4.03 16.27 57.32                                                             
C  8.05 13.95  9.05                                                             
C  8.05 13.95 21.12                                                             
C  8.05 13.95 33.19                                                             
C  8.05 13.95 45.25                                                             
C  8.05 13.95 57.32                                                             
C 12.08 11.62  9.05                                                             
C 12.08 11.62 21.12                                                             
C 12.08 11.62 33.19                                                             
C 12.08 11.62 45.25                                                             
C 12.08 11.62 57.32                                                             
C 16.10  9.30  9.05                                                             
C 16.10  9.30 21.12                                                             
C 16.10  9.30 33.19                                                             
C 16.10  9.30 45.25                                                             
C 16.10  9.30 57.32                                                             
C 20.13  6.97  9.05                                                             
C 20.13  6.97 21.12                                                             
C 20.13  6.97 33.19                                                             
C 20.13  6.97 45.25                                                             
C 20.13  6.97 57.32                                                             
C 24.16  4.65  9.05                                                             
C 24.16  4.65 21.12                                                             
C 24.16  4.65 33.19                                                             
C 24.16  4.65 45.25                                                             
C 24.16  4.65 57.32                                                             
C 28.18  2.32  9.05                                                             
C 28.18  2.32 21.12                                                             
C 28.18  2.32 33.19                                                             
C 28.18  2.32 45.25                                                             
C 28.18  2.32 57.32                                                             
C 12.08 16.27  9.05                                                             
C 12.08 16.27 21.12                                                             
C 12.08 16.27 33.19                                                             
C 12.08 16.27 45.25                                                             
C 12.08 16.27 57.32                                                             
C 16.10 13.95  9.05                                                             
C 16.10 13.95 21.12                                                             
C 16.10 13.95 33.19                                                             
C 16.10 13.95 45.25                                                             
C 16.10 13.95 57.32                                                             
C 20.13 11.62  9.05                                                             
C 20.13 11.62 21.12                                                             
C 20.13 11.62 33.19                                                             
C 20.13 11.62 45.25                                                             
C 20.13 11.62 57.32                                                             
C 24.16  9.30  9.05                                                             
C 24.16  9.30 21.12                                                             
C 24.16  9.30 33.19                                                             
C 24.16  9.30 45.25                                                             
C 24.16  9.30 57.32                                                             
C 28.18  6.97  9.05                                                             
C 28.18  6.97 21.12                                                             
C 28.18  6.97 33.19                                                             
C 28.18  6.97 45.25                                                             
C 28.18  6.97 57.32                                                             
C 20.13 16.27  9.05                                                             
C 20.13 16.27 21.12                                                             
C 20.13 16.27 33.19                                                             
C 20.13 16.27 45.25                                                             
C 20.13 16.27 57.32                                                             
C 24.16 13.95  9.05                                                             
C 24.16 13.95 21.12                                                             
C 24.16 13.95 33.19                                                             
C 24.16 13.95 45.25                                                             
C 24.16 13.95 57.32                                                             
C 28.18 11.62  9.05                                                             
C 28.18 11.62 21.12                                                             
C 28.18 11.62 33.19                                                             
C 28.18 11.62 45.25                                                             
C 28.18 11.62 57.32                                                             
C 28.18 16.27  9.05                                                             
C 28.18 16.27 21.12                                                             
C 28.18 16.27 33.19                                                             
C 28.18 16.27 45.25                                                             
C 28.18 16.27 57.32                                                             
C  1.34  2.32  3.02                                                             
C  1.34  2.32 15.08                                                             
C  1.34  2.32 27.15                                                             
C  1.34  2.32 39.22                                                             
C  1.34  2.32 51.29                                                             
C  5.37  0.00  3.02                                                             
C  5.37  0.00 15.08                                                             
C  5.37  0.00 27.15                                                             
C  5.37  0.00 39.22                                                             
C  5.37  0.00 51.29                                                             
C  1.34  6.97  3.02                                                             
C  1.34  6.97 15.08                                                             
C  1.34  6.97 27.15                                                             
C  1.34  6.97 39.22                                                             
C  1.34  6.97 51.29                                                             
C  5.37  4.65  3.02                                                             
C  5.37  4.65 15.08                                                             
C  5.37  4.65 27.15                                                             
C  5.37  4.65 39.22                                                             
C  5.37  4.65 51.29                                                             
C  9.39  2.32  3.02                                                             
C  9.39  2.32 15.08                                                             
C  9.39  2.32 27.15                                                             
C  9.39  2.32 39.22                                                             
C  9.39  2.32 51.29                                                             
C 13.42  0.00  3.02                                                             
C 13.42  0.00 15.08                                                             
C 13.42  0.00 27.15                                                             
C 13.42  0.00 39.22                                                             
C 13.42  0.00 51.29                                                             
C  1.34 11.62  3.02                                                             
C  1.34 11.62 15.08                                                             
C  1.34 11.62 27.15                                                             
C  1.34 11.62 39.22                                                             
C  1.34 11.62 51.29                                                             
C  5.37  9.30  3.02                                                             
C  5.37  9.30 15.08                                                             
C  5.37  9.30 27.15                                                             
C  5.37  9.30 39.22                                                             
C  5.37  9.30 51.29                                                             
C  9.39  6.97  3.02                                                             
C  9.39  6.97 15.08                                                             
C  9.39  6.97 27.15                                                             
C  9.39  6.97 39.22                                                             
C  9.39  6.97 51.29                                                             
C 13.42  4.65  3.02                                                             
C 13.42  4.65 15.08                                                             
C 13.42  4.65 27.15                                                             
C 13.42  4.65 39.22                                                             
C 13.42  4.65 51.29                                                             
C 17.45  2.32  3.02                                                             
C 17.45  2.32 15.08                                                             
C 17.45  2.32 27.15                                                             
C 17.45  2.32 39.22                                                             
C 17.45  2.32 51.29                                                             
C 21.47  0.00  3.02                                                             
C 21.47  0.00 15.08                                                             
C 21.47  0.00 27.15                                                             
C 21.47  0.00 39.22                                                             
C 21.47  0.00 51.29                                                             
C  1.34 16.27  3.02                                                             
C  1.34 16.27 15.08                                                             
C  1.34 16.27 27.15                                                             
C  1.34 16.27 39.22                                                             
C  1.34 16.27 51.29                                                             
C  5.37 13.95  3.02                                                             
C  5.37 13.95 15.08                                                             
C  5.37 13.95 27.15                                                             
C  5.37 13.95 39.22                                                             
C  5.37 13.95 51.29                                                             
C  9.39 11.62  3.02                                                             
C  9.39 11.62 15.08                                                             
C  9.39 11.62 27.15                                                             
C  9.39 11.62 39.22                                                             
C  9.39 11.62 51.29                                                             
C 13.42  9.30  3.02                                                             
C 13.42  9.30 15.08                                                             
C 13.42  9.30 27.15                                                             
C 13.42  9.30 39.22                                                             
C 13.42  9.30 51.29                                                             
C 17.45  6.97  3.02                                                             
C 17.45  6.97 15.08                                                             
C 17.45  6.97 27.15                                                             
C 17.45  6.97 39.22                                                             
C 17.45  6.97 51.29                                                             
C 21.47  4.65  3.02                                                             
C 21.47  4.65 15.08                                                             
C 21.47  4.65 27.15                                                             
C 21.47  4.65 39.22                                                             
C 21.47  4.65 51.29                                                             
C 25.50  2.32  3.02                                                             
C 25.50  2.32 15.08                                                             
C 25.50  2.32 27.15                                                             
C 25.50  2.32 39.22                                                             
C 25.50  2.32 51.29                                                             
C 29.52  0.00  3.02                                                             
C 29.52  0.00 15.08                                                             
C 29.52  0.00 27.15                                                             
C 29.52  0.00 39.22                                                             
C 29.52  0.00 51.29                                                             
C  9.39 16.27  3.02                                                             
C  9.39 16.27 15.08                                                             
C  9.39 16.27 27.15                                                             
C  9.39 16.27 39.22                                                             
C  9.39 16.27 51.29                                                             
C 13.42 13.95  3.02                                                             
C 13.42 13.95 15.08                                                             
C 13.42 13.95 27.15                                                             
C 13.42 13.95 39.22                                                             
C 13.42 13.95 51.29                                                             
C 17.45 11.62  3.02                                                             
C 17.45 11.62 15.08                                                             
C 17.45 11.62 27.15                                                             
C 17.45 11.62 39.22                                                             
C 17.45 11.62 51.29                                                             
C 21.47  9.30  3.02                                                             
C 21.47  9.30 15.08                                                             
C 21.47  9.30 27.15                                                             
C 21.47  9.30 39.22                                                             
C 21.47  9.30 51.29                                                             
C 25.50  6.97  3.02                                                             
C 25.50  6.97 15.08                                                             
C 25.50  6.97 27.15                                                             
C 25.50  6.97 39.22                                                             
C 25.50  6.97 51.29                                                             
C 29.52  4.65  3.02                                                             
C 29.52  4.65 15.08                                                             
C 29.52  4.65 27.15                                                             
C 29.52  4.65 39.22                                                             
C 29.52  4.65 51.29                                                             
C 17.45 16.27  3.02                                                             
C 17.45 16.27 15.08                                                             
C 17.45 16.27 27.15                                                             
C 17.45 16.27 39.22                                                             
C 17.45 16.27 51.29                                                             
C 21.47 13.95  3.02                                                             
C 21.47 13.95 15.08                                                             
C 21.47 13.95 27.15                                                             
C 21.47 13.95 39.22                                                             
C 21.47 13.95 51.29                                                             
C 25.50 11.62  3.02                                                             
C 25.50 11.62 15.08                                                             
C 25.50 11.62 27.15                                                             
C 25.50 11.62 39.22                                                             
C 25.50 11.62 51.29                                                             
C 29.52  9.30  3.02                                                             
C 29.52  9.30 15.08                                                             
C 29.52  9.30 27.15                                                             
C 29.52  9.30 39.22                                                             
C 29.52  9.30 51.29                                                             
C 25.50 16.27  3.02                                                             
C 25.50 16.27 15.08                                                             
C 25.50 16.27 27.15                                                             
C 25.50 16.27 39.22                                                             
C 25.50 16.27 51.29                                                             
C 29.52 13.95  3.02                                                             
C 29.52 13.95 15.08                                                             
C 29.52 13.95 27.15                                                             
C 29.52 13.95 39.22                                                             
C 29.52 13.95 51.29                                                             
C  2.68  0.00  9.05                                                             
C  2.68  0.00 21.12                                                             
C  2.68  0.00 33.19                                                             
C  2.68  0.00 45.25                                                             
C  2.68  0.00 57.32                                                             
C  2.68  4.65  9.05                                                             
C  2.68  4.65 21.12                                                             
C  2.68  4.65 33.19                                                             
C  2.68  4.65 45.25                                                             
C  2.68  4.65 57.32                                                             
C  6.71  2.32  9.05                                                             
C  6.71  2.32 21.12                                                             
C  6.71  2.32 33.19                                                             
C  6.71  2.32 45.25                                                             
C  6.71  2.32 57.32                                                             
C 10.74  0.00  9.05                                                             
C 10.74  0.00 21.12                                                             
C 10.74  0.00 33.19                                                             
C 10.74  0.00 45.25                                                             
C 10.74  0.00 57.32                                                             
C  2.68  9.30  9.05                                                             
C  2.68  9.30 21.12                                                             
C  2.68  9.30 33.19                                                             
C  2.68  9.30 45.25                                                             
C  2.68  9.30 57.32                                                             
C  6.71  6.97  9.05                                                             
C  6.71  6.97 21.12                                                             
C  6.71  6.97 33.19                                                             
C  6.71  6.97 45.25                                                             
C  6.71  6.97 57.32                                                             
C 10.74  4.65  9.05                                                             
C 10.74  4.65 21.12                                                             
C 10.74  4.65 33.19                                                             
C 10.74  4.65 45.25                                                             
C 10.74  4.65 57.32                                                             
C 14.76  2.32  9.05                                                             
C 14.76  2.32 21.12                                                             
C 14.76  2.32 33.19                                                             
C 14.76  2.32 45.25                                                             
C 14.76  2.32 57.32                                                             
C 18.79  0.00  9.05                                                             
C 18.79  0.00 21.12                                                             
C 18.79  0.00 33.19                                                             
C 18.79  0.00 45.25                                                             
C 18.79  0.00 57.32                                                             
C  2.68 13.95  9.05                                                             
C  2.68 13.95 21.12                                                             
C  2.68 13.95 33.19                                                             
C  2.68 13.95 45.25                                                             
C  2.68 13.95 57.32                                                             
C  6.71 11.62  9.05                                                             
C  6.71 11.62 21.12                                                             
C  6.71 11.62 33.19                                                             
C  6.71 11.62 45.25                                                             
C  6.71 11.62 57.32                                                             
C 10.74  9.30  9.05                                                             
C 10.74  9.30 21.12                                                             
C 10.74  9.30 33.19                                                             
C 10.74  9.30 45.25                                                             
C 10.74  9.30 57.32                                                             
C 14.76  6.97  9.05                                                             
C 14.76  6.97 21.12                                                             
C 14.76  6.97 33.19                                                             
C 14.76  6.97 45.25                                                             
C 14.76  6.97 57.32                                                             
C 18.79  4.65  9.05                                                             
C 18.79  4.65 21.12                                                             
C 18.79  4.65 33.19                                                             
C 18.79  4.65 45.25                                                             
C 18.79  4.65 57.32                                                             
C 22.81  2.32  9.05                                                             
C 22.81  2.32 21.12                                                             
C 22.81  2.32 33.19                                                             
C 22.81  2.32 45.25                                                             
C 22.81  2.32 57.32                                                             
C 26.84  0.00  9.05                                                             
C 26.84  0.00 21.12                                                             
C 26.84  0.00 33.19                                                             
C 26.84  0.00 45.25                                                             
C 26.84  0.00 57.32                                                             
C  6.71 16.27  9.05                                                             
C  6.71 16.27 21.12                                                             
C  6.71 16.27 33.19                                                             
C  6.71 16.27 45.25                                                             
C  6.71 16.27 57.32                                                             
C 10.74 13.95  9.05                                                             
C 10.74 13.95 21.12                                                             
C 10.74 13.95 33.19                                                             
C 10.74 13.95 45.25                                                             
C 10.74 13.95 57.32                                                             
C 14.76 11.62  9.05                                                             
C 14.76 11.62 21.12                                                             
C 14.76 11.62 33.19                                                             
C 14.76 11.62 45.25                                                             
C 14.76 11.62 57.32                                                             
C 18.79  9.30  9.05                                                             
C 18.79  9.30 21.12                                                             
C 18.79  9.30 33.19                                                             
C 18.79  9.30 45.25                                                             
C 18.79  9.30 57.32                                                             
C 22.81  6.97  9.05                                                             
C 22.81  6.97 21.12                                                             
C 22.81  6.97 33.19                                                             
C 22.81  6.97 45.25                                                             
C 22.81  6.97 57.32                                                             
C 26.84  4.65  9.05                                                             
C 26.84  4.65 21.12                                                             
C 26.84  4.65 33.19                                                             
C 26.84  4.65 45.25                                                             
C 26.84  4.65 57.32                                                             
C 30.86  2.32  9.05                                                             
C 30.86  2.32 21.12                                                             
C 30.86  2.32 33.19                                                             
C 30.86  2.32 45.25                                                             
C 30.86  2.32 57.32                                                             
C 14.76 16.27  9.05                                                             
C 14.76 16.27 21.12                                                             
C 14.76 16.27 33.19                                                             
C 14.76 16.27 45.25                                                             
C 14.76 16.27 57.32                                                             
C 18.79 13.95  9.05                                                             
C 18.79 13.95 21.12                                                             
C 18.79 13.95 33.19                                                             
C 18.79 13.95 45.25                                                             
C 18.79 13.95 57.32                                                             
C 22.81 11.62  9.05                                                             
C 22.81 11.62 21.12                                                             
C 22.81 11.62 33.19                                                             
C 22.81 11.62 45.25                                                             
C 22.81 11.62 57.32                                                             
C 26.84  9.30  9.05                                                             
C 26.84  9.30 21.12                                                             
C 26.84  9.30 33.19                                                             
C 26.84  9.30 45.25                                                             
C 26.84  9.30 57.32                                                             
C 30.86  6.97  9.05                                                             
C 30.86  6.97 21.12                                                             
C 30.86  6.97 33.19                                                             
C 30.86  6.97 45.25                                                             
C 30.86  6.97 57.32                                                             
C 22.81 16.27  9.05                                                             
C 22.81 16.27 21.12                                                             
C 22.81 16.27 33.19                                                             
C 22.81 16.27 45.25                                                             
C 22.81 16.27 57.32                                                             
C 26.84 13.95  9.05                                                             
C 26.84 13.95 21.12                                                             
C 26.84 13.95 33.19                                                             
C 26.84 13.95 45.25                                                             
C 26.84 13.95 57.32                                                             
C 30.86 11.62  9.05                                                             
C 30.86 11.62 21.12                                                             
C 30.86 11.62 33.19                                                             
C 30.86 11.62 45.25                                                             
C 30.86 11.62 57.32                                                             
C 30.86 16.27  9.05                                                             
C 30.86 16.27 21.12                                                             
C 30.86 16.27 33.19                                                             
C 30.86 16.27 45.25                                                             
C 30.86 16.27 57.32                                                             
%ENDBLOCK POSITIONS_ABS                                                         

--------------------------------------------------------------------------------
-------------------------------- END INPUT FILE --------------------------------
--------------------------------------------------------------------------------


 
<<<<<<<<<<<<<<<<<<<<<<<<<<<<<<<<< Full system >>>>>>>>>>>>>>>>>>>>>>>>>>>>>>>>>>
<<<<<<<<<<<<<<<<<<<<<<<<<<< PAW Dataset information >>>>>>>>>>>>>>>>>>>>>>>>>>>
File: ~/pp/paw/c_pbe_abinit.paw; rc = 1.25 bohr; shape type =  3; rshape = 1.25 bohr;
  Atomic number:  6;  ionic charge:  4.000000
    Partial Wave 1: l = 0
    Partial Wave 2: l = 0
    Partial Wave 3: l = 1
    Partial Wave 4: l = 1
  Core charge supplied for Nonlinear Core Corrections
<<<<<<<<<<<<<<<<<<<<<<<<<<<<<<<<<<<<<<< >>>>>>>>>>>>>>>>>>>>>>>>>>>>>>>>>>>>>>>

-------------------------- Atom counting information ---------------------------
Symbol    Natoms    Nngwfs    Nprojs
  C        640      2560      5120
.......   ......    ......    ......
Totals:    640      2560      5120
--------------------------------------------------------------------------------

=============================== PSINC grid sizes ===============================
                      Simulation cell:   63 x  35 x 119
                              FFT-box:   63 x  35 x 117
                                  PPD:    7 x   5 x   1
Grid space d1=  0.511269841270a0 (KE cutoff=  29.06054Eh = 790.77748eV)
Grid space d2=  0.531142857143a0 (KE cutoff=  26.92659Eh = 732.70972eV)
Grid space d3=  0.507058823529a0 (KE cutoff=  29.54523Eh = 803.96650eV)
================================================================================
  
WARNING in cell_grid_distribute:
Average of less than one 23-slab per node, so workload cannot be
equally balanced between nodes.

********************* Fourier parallelisation information **********************
       Coarse grid (whole simulation cell) dimensions:     63    35   119
          Real-space ('12') slabs/node (min max mean):      2     3     2
         Recip-space ('23') slabs/node (min max mean):      0     1     0
********************************************************************************

********************* Fourier parallelisation information **********************
       Double grid (whole simulation cell) dimensions:    126    70   238
          Real-space ('12') slabs/node (min max mean):      5     6     5
         Recip-space ('23') slabs/node (min max mean):      1     2     1
********************************************************************************

Atom SCF Calculation for C  : Z (AE atom) =   6 : Z (PS atom) =   4
Config String: 2s2 2p2
Orbitals (num,occ):  2     2.00 2.00
Orbitals   (num,l):  2        0    1
Real-space Grid (nr,dr,rmax): 1293    0.0069659443    9.0000000000
Spherical Bessel Basis (nsws,lmax,cutoff):   37    2  161.4736382572
Confining potential (l,width,scale):  0    3.0000000000  100.0000000000
Confining potential (l,width,scale):  1    3.0000000000  100.0000000000
  1         -5.4129360987   -1.2444937266    4.5135257941   -1.5420271367
  2         -5.3444202281   -1.3377187790    4.4131101426   -1.5071921700
  3         -5.3525226456   -1.3566567794    4.3924752240   -1.5004938544
  4         -5.3561013121   -1.3623552809    4.3862114699   -1.4986199617
  5         -5.3580093800   -1.3653574582    4.3828991843   -1.4976654093
  6         -5.3590276761   -1.3669475005    4.3811409016   -1.4971696795
  7         -5.3595688314   -1.3677934914    4.3802040659   -1.4969088858
  8         -5.3598556216   -1.3682449178    4.3797036984   -1.4967706290
  9         -5.3600074081   -1.3684862338    4.3794360452   -1.4966970063
 10         -5.3600877081   -1.3686153812    4.3792927313   -1.4966576988
 11         -5.3601301919   -1.3686845537    4.3792159394   -1.4966366788
 12         -5.3601526758   -1.3687216261    4.3791747687   -1.4966254262
 13         -5.3601645804   -1.3687415049    4.3791526850   -1.4966193980
 14         -5.3601708871   -1.3687521691    4.3791408341   -1.4966161667
 15         -5.3601742301   -1.3687578926    4.3791344719   -1.4966144337
 16         -5.3601760032   -1.3687609656    4.3791310549   -1.4966135039
 17         -5.3601769442   -1.3687626162    4.3791292190   -1.4966130048
 18         -5.3601774440   -1.3687635032    4.3791282322   -1.4966127369
 19         -5.3601777096   -1.3687639799    4.3791277016   -1.4966125929
 20         -5.3601778508   -1.3687642363    4.3791274162   -1.4966125155
 21         -5.3601779259   -1.3687643743    4.3791272626   -1.4966124740
Atom SCF converged after  21 iterations to a total energy of     -5.36017793

Determining parallel strategy ...
... using space-filling curve
... NGWF load balancing: max     64;  min     64;  average     64
... Projector load balancing: max    128;  min    128;  average    128
... done
Calculating Ewald energy ...
              Ewald: real-space energy =    9529.001465
        Ewald: reciprocal-space energy =       0.042581
         Ewald: (sum_charge)**2 Energy =   11501.773302
         Ewald: (sum_charge**2) Energy =     909.295019
                          Ewald Energy =   -2882.024275
Basis initialisation ...... NGWF spheres initialised
... Projector spheres initialised
... NGWF tight boxes initialised
... Projector tight boxes initialised
... Tight-boxes gathered
... NGWF basis size (local,global):     692852  27896992
... PAW projector initialisation
... done

============================= Charge Augmentation ==============================
                           Aug box size:   11 x  11 x  11
================================================================================

========================== Sparse matrix information ===========================
                        Overlap matrix filling:  44.38%
                        Density kernel filling: 100.00%
              NGWF-Proj overlap matrix filling:  13.12%
                    Aug Overlap matrix filling:  47.81%
                    Hamiltonian matrix filling:  47.81%
                  NGWF diagonal matrix filling:   0.16%
                             KS matrix filling: 100.00% 
                           KSKS matrix filling: 100.00% 
================================================================================

Sparse matrix initialisation ... done
NGWF initialisation ...... done
============ Calculation of NGWF S^-1 using Hotelling algorithm ================ 
         Iteration  |  Frobenius norm and Maximum abs value    (of I-S*S_n^-1)   
               1       0.49243137E+02     0.97841769E+00
               2       0.48141212E+02     0.95859535E+00
               3       0.46452240E+02     0.92326758E+00
               4       0.44209524E+02     0.86516907E+00
               5       0.41487507E+02     0.77846259E+00
               6       0.38261659E+02     0.69233382E+00
               7       0.34787350E+02     0.64247091E+00
               8       0.31471905E+02     0.60166190E+00
               9       0.28112696E+02     0.56201753E+00
              10       0.24013090E+02     0.50364481E+00
              11       0.18629935E+02     0.40819278E+00
              12       0.12067367E+02     0.27272028E+00
              13       0.56953942E+01     0.12794739E+00
              14       0.15057196E+01     0.31605389E-01
              15       0.12533017E+00     0.23310253E-02
              16       0.10652135E-02     0.15966584E-04
              17       0.11181243E-06     0.10794642E-08
              18       0.89140914E-13     0.46629367E-14
================================================================================
Calculating core density ...
================================= Core Density =================================
               Core den box size:   21 x  21 x  21
================================================================================
 ... done
Up spin density kernel initialisation ...... done

Writing density kernel to file "3.1930128_GO_manual_4x64graphite.dkn" ... done

>>> Optimising kernel for current NGWFs:

--------------------------- Ensemble-DFT optimisation --------------------------
Running ScaLAPACK on   40 processor(s).

--------------------------------------------------------------------------------
  Iter                              Commutator    Free_energy(A=E-TS)     DeltaA
#    0                          0.000051716814   -3619.54640458392760  -3.62E+03

Step                       =       0.381966011250
Energy                     =   -3619.546368456023
Entropy (-TS)              =      -0.000036127746
Free energy (A=E-TS)       =   -3619.546404583928
Est. 0K Energy 0.5*(E+A)   =   -3619.546386519975
Residual Non-orthogonality =       0.000000000000
Residual N_electrons       =      -0.000000000158

Spin          Integrated_Ne            Fermi_level     Delta_Fermi_level
   1      2560.000000000656         0.241496303510              2.41E-01

                           Spin 1          
     Orb      H-eigenvalues     Occupancies
       1 |    -0.4857332463    1.0000000000 | 
                          ------
    1276 |     0.2083219300    0.9999717853 | 
    1277 |     0.2089206861    0.9999659132 | 
    1278 |     0.2089411247    0.9999656925 | 
    1279 |     0.2092956183    0.9999616291 | 
    1280 |     0.2099013878    0.9999535406 | 
                 - Gap at zero temperature -
    1281 |     0.2754612787    0.0000219814 | 
    1282 |     0.2754664259    0.0000219457 | 
    1283 |     0.2756153272    0.0000209377 | 
    1284 |     0.2756814248    0.0000205053 | 
    1285 |     0.2756865988    0.0000204718 | 
                          ------
    2560 |     1.0830302335    0.0000000000 | 

                       |  Abs_value |  Threshold | Converged
     Delta_Free_energy |   3.62E+03 |   1.00E-06 |        No
     Delta_Energy      |   3.62E+03 |   1.00E-04 |        No
     Delta_Entropy     |   3.61E-05 |   1.00E-04 |       Yes
     Commutator        |   5.17E-05 |   1.00E-05 |        No
     Delta_Fermi_level |   2.41E-01 |   1.00E-03 |        No

  Line search of the free energy minimum:
  Step_type        Step             Free_energy   Predicted_free_energy
.   Initial    0.000000    -3619.54640458392760
.    Trial1    0.381966    -3619.54935592016955
.    Trial2    0.618034    -3619.54900978983051
. Quadratic    0.450713    -3619.54942606285067    -3619.54942621946384

--------------------------------------------------------------------------------
  Iter                              Commutator    Free_energy(A=E-TS)     DeltaA
#    1                          0.000024672753   -3619.54942606285067  -3.02E-03

Step                       =       0.450713158449
Energy                     =   -3619.549389631876
Entropy (-TS)              =      -0.000036431316
Free energy (A=E-TS)       =   -3619.549426062851
Est. 0K Energy 0.5*(E+A)   =   -3619.549407847363
Residual Non-orthogonality =       0.000000000000
Residual N_electrons       =       0.000000000341

Spin          Integrated_Ne            Fermi_level     Delta_Fermi_level
   1      2559.999999998594         0.242635241740              1.14E-03

                           Spin 1          
     Orb      H-eigenvalues     Occupancies
       1 |    -0.4843861063    1.0000000000 | 
                          ------
    1276 |     0.2095546867    0.9999709369 | 
    1277 |     0.2100430217    0.9999660915 | 
    1278 |     0.2100451962    0.9999660682 | 
    1279 |     0.2105652274    0.9999600128 | 
    1280 |     0.2110428617    0.9999535034 | 
                 - Gap at zero temperature -
    1281 |     0.2765658226    0.0000222214 | 
    1282 |     0.2765831643    0.0000221001 | 
    1283 |     0.2767405331    0.0000210287 | 
    1284 |     0.2767657188    0.0000208622 | 
    1285 |     0.2768075249    0.0000205886 | 
                          ------
    2560 |     1.0858461332    0.0000000000 | 

                       |  Abs_value |  Threshold | Converged
     Delta_Free_energy |   3.02E-03 |   1.00E-06 |        No
     Delta_Energy      |   3.02E-03 |   1.00E-04 |        No
     Delta_Entropy     |   3.04E-07 |   1.00E-04 |       Yes
     Commutator        |   2.47E-05 |   1.00E-05 |        No
     Delta_Fermi_level |   1.14E-03 |   1.00E-03 |        No

  Line search of the free energy minimum:
  Step_type        Step             Free_energy   Predicted_free_energy
.   Initial    0.000000    -3619.54942606285067
.    Trial1    0.450713    -3619.54988537522104
.    Trial2    0.660522    -3619.54933813624075
. Quadratic    0.318141    -3619.54998200536284    -3619.54998189282014

--------------------------------------------------------------------------------
  Iter                              Commutator    Free_energy(A=E-TS)     DeltaA
#    2                          0.000016423084   -3619.54998200536284  -5.56E-04

Step                       =       0.318141088367
Energy                     =   -3619.549945633310
Entropy (-TS)              =      -0.000036371979
Free energy (A=E-TS)       =   -3619.549982005363
Est. 0K Energy 0.5*(E+A)   =   -3619.549963819336
Residual Non-orthogonality =       0.000000000000
Residual N_electrons       =      -0.000000000074

Spin          Integrated_Ne            Fermi_level     Delta_Fermi_level
   1      2560.000000000306         0.243003061352              3.68E-04

                           Spin 1          
     Orb      H-eigenvalues     Occupancies
       1 |    -0.4838800539    1.0000000000 | 
                          ------
    1276 |     0.2099000044    0.9999711427 | 
    1277 |     0.2104210403    0.9999659821 | 
    1278 |     0.2104250951    0.9999659385 | 
    1279 |     0.2109015997    0.9999604079 | 
    1280 |     0.2114136121    0.9999534604 | 
                 - Gap at zero temperature -
    1281 |     0.2769412615    0.0000221680 | 
    1282 |     0.2769599774    0.0000220374 | 
    1283 |     0.2771211682    0.0000209438 | 
    1284 |     0.2771514373    0.0000207446 | 
    1285 |     0.2772010603    0.0000204221 | 
                          ------
    2560 |     1.0869007019    0.0000000000 | 

                       |  Abs_value |  Threshold | Converged
     Delta_Free_energy |   5.56E-04 |   1.00E-06 |        No
     Delta_Energy      |   5.56E-04 |   1.00E-04 |        No
     Delta_Entropy     |   5.93E-08 |   1.00E-04 |       Yes
     Commutator        |   1.64E-05 |   1.00E-05 |        No
     Delta_Fermi_level |   3.68E-04 |   1.00E-03 |       Yes

  Line search of the free energy minimum:
  Step_type        Step             Free_energy   Predicted_free_energy
.   Initial    0.000000    -3619.54998200536284
.    Trial1    0.318141    -3619.55018854363652
.    Trial2    0.578588    -3619.54985804277339
. Quadratic    0.256981    -3619.55020095042801    -3619.55020094443580

--------------------------------------------------------------------------------
  Iter                              Commutator    Free_energy(A=E-TS)     DeltaA
#    3                          0.000011250632   -3619.55020095042801  -2.19E-04

Step                       =       0.256981441853
Energy                     =   -3619.550164590591
Entropy (-TS)              =      -0.000036360253
Free energy (A=E-TS)       =   -3619.550200950428
Est. 0K Energy 0.5*(E+A)   =   -3619.550182770509
Residual Non-orthogonality =       0.000000000000
Residual N_electrons       =       0.000000000416

Spin          Integrated_Ne            Fermi_level     Delta_Fermi_level
   1      2559.999999998292         0.243209587483              2.07E-04

                           Spin 1          
     Orb      H-eigenvalues     Occupancies
       1 |    -0.4835979556    1.0000000000 | 
                          ------
    1276 |     0.2101044214    0.9999711619 | 
    1277 |     0.2106282399    0.9999659748 | 
    1278 |     0.2106325612    0.9999659284 | 
    1279 |     0.2111046164    0.9999604517 | 
    1280 |     0.2116196822    0.9999534671 | 
                 - Gap at zero temperature -
    1281 |     0.2771480052    0.0000221665 | 
    1282 |     0.2771666817    0.0000220362 | 
    1283 |     0.2773294050    0.0000209325 | 
    1284 |     0.2773599268    0.0000207317 | 
    1285 |     0.2774096954    0.0000204085 | 
                          ------
    2560 |     1.0874866359    0.0000000000 | 

                       |  Abs_value |  Threshold | Converged
     Delta_Free_energy |   2.19E-04 |   1.00E-06 |        No
     Delta_Energy      |   2.19E-04 |   1.00E-04 |        No
     Delta_Entropy     |   1.17E-08 |   1.00E-04 |       Yes
     Commutator        |   1.13E-05 |   1.00E-05 |        No
     Delta_Fermi_level |   2.07E-04 |   1.00E-03 |       Yes

  Line search of the free energy minimum:
  Step_type        Step             Free_energy   Predicted_free_energy
.   Initial    0.000000    -3619.55020095042801
.    Trial1    0.256981    -3619.55030366485062
.    Trial2    0.540789    -3619.55022616277893
. Quadratic    0.289132    -3619.55030495106939    -3619.55030495080246

--------------------------------------------------------------------------------
  Iter                              Commutator    Free_energy(A=E-TS)     DeltaA
#    4                          0.000008384656   -3619.55030495106939  -1.04E-04

Step                       =       0.289132210968
Energy                     =   -3619.550268595773
Entropy (-TS)              =      -0.000036355787
Free energy (A=E-TS)       =   -3619.550304951069
[...]
 C   160 -- C   385       -0.10      5.37000
 C   159 -- C   384       -0.10      5.37000
 C   158 -- C   383       -0.10      5.37000
 C   157 -- C   382       -0.10      5.37000
 C   156 -- C   381       -0.10      5.37000
 C   155 -- C   355       -0.10      5.37000
 C   154 -- C   354       -0.10      5.37000
 C   153 -- C   353       -0.10      5.37000
 C   152 -- C   352       -0.10      5.37000
 C   151 -- C   351       -0.10      5.37000
 C   140 -- C   335       -0.10      5.37000
 C   139 -- C   334       -0.10      5.37000
 C   138 -- C   333       -0.10      5.37000
 C   137 -- C   332       -0.10      5.37000
 C   136 -- C   331       -0.10      5.37000
 C   115 -- C   325       -0.10      5.37000
 C   114 -- C   324       -0.10      5.37000
 C   113 -- C   323       -0.10      5.37000
 C   112 -- C   322       -0.10      5.37000
 C   111 -- C   321       -0.10      5.37000
 C   219 -- C   569       -0.10      5.37202
 C   218 -- C   568       -0.10      5.37202
 C   217 -- C   567       -0.10      5.37202
 C   216 -- C   566       -0.10      5.37202
 C   285 -- C   580       -0.10      5.37202
 C   284 -- C   579       -0.10      5.37202
 C   283 -- C   578       -0.10      5.37202
 C   282 -- C   577       -0.10      5.37202
 C   281 -- C   576       -0.10      5.37202
 C   260 -- C   605       -0.10      5.37202
 C   259 -- C   604       -0.10      5.37202
 C   258 -- C   603       -0.10      5.37202
 C   257 -- C   602       -0.10      5.37202
 C   256 -- C   601       -0.10      5.37202
 C   250 -- C   540       -0.10      5.37202
 C   249 -- C   539       -0.10      5.37202
 C   248 -- C   538       -0.10      5.37202
 C   247 -- C   537       -0.10      5.37202
 C   246 -- C   536       -0.10      5.37202
 C   220 -- C   570       -0.10      5.37202
 C   220 -- C   515       -0.10      5.37202
 C   219 -- C   514       -0.10      5.37202
 C   218 -- C   513       -0.10      5.37202
 C   217 -- C   512       -0.10      5.37202
 C   216 -- C   511       -0.10      5.37202
 C    95 -- C   425       -0.10      5.37202
 C    94 -- C   424       -0.10      5.37202
 C    93 -- C   423       -0.10      5.37202
 C   195 -- C   540       -0.10      5.37202
 C   195 -- C   500       -0.10      5.37202
 C   194 -- C   539       -0.10      5.37202
 C    92 -- C   422       -0.10      5.37202
 C   194 -- C   499       -0.10      5.37202
 C   193 -- C   538       -0.10      5.37202
 C   193 -- C   498       -0.10      5.37202
 C   192 -- C   537       -0.10      5.37202
 C    91 -- C   421       -0.10      5.37202
 C   192 -- C   497       -0.10      5.37202
 C   191 -- C   536       -0.10      5.37202
 C   191 -- C   496       -0.10      5.37202
 C    85 -- C   355       -0.10      5.37202
 C   180 -- C   515       -0.10      5.37202
 C    84 -- C   354       -0.10      5.37202
 C   179 -- C   514       -0.10      5.37202
 C    83 -- C   353       -0.10      5.37202
 C   178 -- C   513       -0.10      5.37202
 C   177 -- C   512       -0.10      5.37202
 C    82 -- C   352       -0.10      5.37202
 C   176 -- C   511       -0.10      5.37202
 C    81 -- C   351       -0.10      5.37202
 C   120 -- C   395       -0.10      5.37202
 C    55 -- C   385       -0.10      5.37202
 C   119 -- C   394       -0.10      5.37202
 C   118 -- C   393       -0.10      5.37202
 C   117 -- C   392       -0.10      5.37202
 C    54 -- C   384       -0.10      5.37202
 C   116 -- C   391       -0.10      5.37202
 C    53 -- C   383       -0.10      5.37202
 C    52 -- C   382       -0.10      5.37202
 C    51 -- C   381       -0.10      5.37202
 C   205 -- C   550       -0.10      5.37202
 C   204 -- C   549       -0.10      5.37202
 C   203 -- C   548       -0.10      5.37202
 C   202 -- C   547       -0.10      5.37202
 C   201 -- C   546       -0.10      5.37202
 C    95 -- C   365       -0.10      5.37202
 C    94 -- C   364       -0.10      5.37202
 C    93 -- C   363       -0.10      5.37202
 C    92 -- C   362       -0.10      5.37202
 C    91 -- C   361       -0.10      5.37202
 C    65 -- C   395       -0.10      5.37202
 C    64 -- C   394       -0.10      5.37202
 C    63 -- C   393       -0.10      5.37202
 C    30 -- C   355       -0.10      5.37202
 C    62 -- C   392       -0.10      5.37202
 C    61 -- C   391       -0.10      5.37202
 C    29 -- C   354       -0.10      5.37202
 C   260 -- C   550       -0.10      5.37202
 C   259 -- C   549       -0.10      5.37202
 C    28 -- C   353       -0.10      5.37202
 C   258 -- C   548       -0.10      5.37202
 C   257 -- C   547       -0.10      5.37202
 C   256 -- C   546       -0.10      5.37202
 C    27 -- C   352       -0.10      5.37202
 C    26 -- C   351       -0.10      5.37202
 C    55 -- C   335       -0.10      5.37202
 C    54 -- C   334       -0.10      5.37202
 C    53 -- C   333       -0.10      5.37202
 C   230 -- C   580       -0.10      5.37202
 C   230 -- C   525       -0.10      5.37202
 C   229 -- C   579       -0.10      5.37202
 C   229 -- C   524       -0.10      5.37202
 C   228 -- C   578       -0.10      5.37202
 C    52 -- C   332       -0.10      5.37202
 C   228 -- C   523       -0.10      5.37202
 C   227 -- C   577       -0.10      5.37202
 C   227 -- C   522       -0.10      5.37202
 C   226 -- C   576       -0.10      5.37202
 C   226 -- C   521       -0.10      5.37202
 C    51 -- C   331       -0.10      5.37202
 C    23 -- C   478       -0.10      5.37202
 C    49 -- C   469       -0.10      5.37202
 C    11 -- C   331       -0.10      5.37202
 C    48 -- C   468       -0.10      5.37202
 C    47 -- C   467       -0.10      5.37202
 C    22 -- C   477       -0.10      5.37202
 C    46 -- C   466       -0.10      5.37202
 C    21 -- C   476       -0.10      5.37202
 C    40 -- C   365       -0.10      5.37202
 C    39 -- C   364       -0.10      5.37202
 C    38 -- C   363       -0.10      5.37202
 C    37 -- C   362       -0.10      5.37202
 C    36 -- C   361       -0.10      5.37202
 C    15 -- C   335       -0.10      5.37202
 C    65 -- C   345       -0.10      5.37202
 C    64 -- C   344       -0.10      5.37202
 C    63 -- C   343       -0.10      5.37202
 C    30 -- C   325       -0.10      5.37202
 C    14 -- C   334       -0.10      5.37202
 C    62 -- C   342       -0.10      5.37202
 C    61 -- C   341       -0.10      5.37202
 C    29 -- C   324       -0.10      5.37202
 C    28 -- C   323       -0.10      5.37202
 C    13 -- C   333       -0.10      5.37202
 C    27 -- C   322       -0.10      5.37202
 C    26 -- C   321       -0.10      5.37202
 C    25 -- C   480       -0.10      5.37202
 C    12 -- C   332       -0.10      5.37202
 C    24 -- C   479       -0.10      5.37202
 C    50 -- C   470       -0.10      5.37202
 C    24 -- C   449       -0.10      5.37202
 C     6 -- C   416       -0.10      5.37202
 C    23 -- C   448       -0.10      5.37202
 C    22 -- C   447       -0.10      5.37202
 C    10 -- C   470       -0.10      5.37202
 C     5 -- C   450       -0.10      5.37202
 C    21 -- C   446       -0.10      5.37202
 C    10 -- C   420       -0.10      5.37202
 C     9 -- C   469       -0.10      5.37202
 C     9 -- C   419       -0.10      5.37202
 C     8 -- C   468       -0.10      5.37202
 C     4 -- C   449       -0.10      5.37202
 C   150 -- C   440       -0.10      5.37202
 C   149 -- C   439       -0.10      5.37202
 C   148 -- C   438       -0.10      5.37202
 C   147 -- C   437       -0.10      5.37202
 C     8 -- C   418       -0.10      5.37202
 C   146 -- C   436       -0.10      5.37202
 C     2 -- C   447       -0.10      5.37202
 C   135 -- C   460       -0.10      5.37202
 C     7 -- C   467       -0.10      5.37202
 C   134 -- C   459       -0.10      5.37202
 C   133 -- C   458       -0.10      5.37202
 C   132 -- C   457       -0.10      5.37202
 C   131 -- C   456       -0.10      5.37202
 C     7 -- C   417       -0.10      5.37202
 C     1 -- C   446       -0.10      5.37202
 C     6 -- C   466       -0.10      5.37202
 C    25 -- C   450       -0.10      5.37202
 C     3 -- C   448       -0.10      5.37202
 C   106 -- C   436       -0.10      5.37202
 C   106 -- C   376       -0.10      5.37202
 C    80 -- C   410       -0.10      5.37202
 C    79 -- C   409       -0.10      5.37202
 C    78 -- C   408       -0.10      5.37202
 C    77 -- C   407       -0.10      5.37202
 C    76 -- C   406       -0.10      5.37202
 C   135 -- C   410       -0.10      5.37202
 C   134 -- C   409       -0.10      5.37202
 C   133 -- C   408       -0.10      5.37202
 C   132 -- C   407       -0.10      5.37202
 C   131 -- C   406       -0.10      5.37202
 C   110 -- C   440       -0.10      5.37202
 C   110 -- C   380       -0.10      5.37202
 C   109 -- C   439       -0.10      5.37202
 C   109 -- C   379       -0.10      5.37202
 C   108 -- C   438       -0.10      5.37202
 C   108 -- C   378       -0.10      5.37202
 C   107 -- C   437       -0.10      5.37202
 C   107 -- C   377       -0.10      5.37202
 C   215 -- C   635       -0.10      5.38000
 C   214 -- C   634       -0.10      5.38000
 C   213 -- C   633       -0.10      5.38000
 C   212 -- C   632       -0.10      5.38000
 C   211 -- C   631       -0.10      5.38000
 C   190 -- C   620       -0.10      5.38000
 C   189 -- C   619       -0.10      5.38000
 C   188 -- C   618       -0.10      5.38000
 C   187 -- C   617       -0.10      5.38000
 C   186 -- C   616       -0.10      5.38000
 C   175 -- C   595       -0.10      5.38000
 C   174 -- C   594       -0.10      5.38000
 C   173 -- C   593       -0.10      5.38000
 C   172 -- C   592       -0.10      5.38000
 C   171 -- C   591       -0.10      5.38000
 C   245 -- C   640       -0.10      5.38000
 C   244 -- C   639       -0.10      5.38000
 C   243 -- C   638       -0.10      5.38000
 C   242 -- C   637       -0.10      5.38000
 C   241 -- C   636       -0.10      5.38000
==================================================


=================== Orbital energy and occupancy information ===================

      Total number of orbitals:    2560
        Occupancy sum (kernel):    1280.000000000
   Occupancy sum (eigenvalues):    1280.000000000
                 HOMO-LUMO gap:       0.000016837 Eh
                 Mid-gap level:       0.311877203 Eh

                        Orbital | Energy (Eh) | Occupancy
                            1    -0.444703255   1.0000000
                        .......   ...........   .........
                         1272     0.244293151   0.9999869
                         1273     0.244696495   0.9999852
                         1274     0.244765687   0.9999849
                         1275     0.248570527   0.9999497
                         1276     0.248594032   0.9999493
                         1277     0.249013366   0.9999421
                         1278     0.249036702   0.9999417
                         1279     0.249068079   0.9999411
                         1280     0.249492210   0.9999327
                         1281     0.311868784   0.0000414
                        ....... -- gap at 0K -- .........
                         1282     0.311885621   0.0000412
                         1283     0.312114703   0.0000383
                         1284     0.312131367   0.0000381
                         1285     0.313080746   0.0000284
                         1286     0.313097219   0.0000282
                         1287     0.313344938   0.0000261
                         1288     0.313361400   0.0000260
                         1289     0.313859840   0.0000222
                         1290     0.314012337   0.0000209
                         1291     0.314062394   0.0000206
                        .......   ...........   .........
                         2560     1.179933662   0.0000000

================================================================================

===================== Writing canonical molecular orbitals =====================
| Orbital  Energy (eV)  Norm     |
| HOMO      8.48638143  1.000000 | Writing "3.1930128_GO_manual_4x64graphite_HOMO.cube" ... done
Writing "3.1930128_GO_manual_4x64graphite_HOMO.dx" ... done
| LUMO      8.48683959  1.000000 | Writing "3.1930128_GO_manual_4x64graphite_LUMO.cube" ... done
Writing "3.1930128_GO_manual_4x64graphite_LUMO.dx" ... done
================================================================================
 
===================== Density of States (DOS) calculation ======================
Writing "3.1930128_GO_manual_4x64graphite_DOS.txt" ...  done
================================================================================
 
Writing bands to file "3.1930128_GO_manual_4x64graphite.val_bands" ... done
 
================ Projected Density of States (pDOS) calculation ================
 
Constructing AM resolved functions  ...... done
Writing NGWF plot files in formats: CUBE DX ...  done
 
Performing overlap integrals ...  done
 
Computing pDOS weights ...  done
 
All bands spilling parameter =   3.93 %
Occupancy-weighted spilling parameter =   0.80 %
 
 => Outputting data for OptaDOS <=
 
Writing pDOS weights to file "3.1930128_GO_manual_4x64graphite.val_pdos_bin" ... done
 
Writing band gradients to file "3.1930128_GO_manual_4x64graphite.val_dome_bin" ... done
 
Writing Castep output cell file to "3.1930128_GO_manual_4x64graphite-out.cell" ... done
 
 => Computing Gaussian smeared pDOS <= 
Writing "3.1930128_GO_manual_4x64graphite_PDOS.txt" ...  done
 
 => Computing Occupancy-weighted Gaussian smeared pDOS <= 
Writing "3.1930128_GO_manual_4x64graphite_occ_PDOS.txt" ...  done
  => Band centres: 
 S band centre of group 1:  -15.453743 eV
 P band centre of group 1:   -8.398343 eV
  Band centres done. <=
  => Integrated number of electrons in each AM band: 
 S num electrons of group 1:  571.723891
 P num electrons of group 1: 1967.790569
  Integrated number of electrons done. <=
================================================================================

------------------------------ TIMING INFORMATION ------------------------------
AVERAGE TIME:    4415.618s on     40 node(s)                                    
TOTAL TIME:      4415.618s on     40 node(s)                                    
================= AVERAGE TIMINGS FROM ALL NODES (CUMULATIVE) ==================
|| TAG                                    #calls    cpu time   %total  Gflops ||
|| work_imbalance                       :     1        0.00s   0.000%  ------ ||
|| paw_tcore_hartree_on_grid            :     1        0.00s   0.000%  ------ ||
|| paw_tcore_density                    :     1        0.01s   0.000%  ------ ||
|| paw_sphere_density_on_grid           :     1        0.01s   0.000%  ------ ||
|| sparse_set_to_garbage                :   183        0.03s   0.001%  ------ ||
|| pseudo_make_structure_factor         :     1        0.05s   0.001%  ------ ||
|| paw_dij_hartree                      :   390        0.05s   0.001%  ------ ||
|| basis_extract_function_from_box      :  2048        0.09s   0.002%  ------ ||
|| paw_species_calc_proj_prec_mat       :     1        0.12s   0.003%  ------ ||
|| paw_dataset_init                     :     1        0.15s   0.003%  ------ ||
|| density_init_guess_real              :     1        0.18s   0.004%  ------ ||
|| ngwfs_initialise_from_radial         :     2        0.66s   0.015%  ------ ||
|| sparse_init                          :     1        0.94s   0.021%  ------ ||
|| dense_normal_eigensolve              :     1        0.99s   0.022%  ------ ||
|| hartree_on_grid                      :   292        1.21s   0.027%  ------ ||
|| restart_kernel_write                 :    17        1.26s   0.029%  ------ ||
|| ewald_calculate_energy               :     1        2.31s   0.052%  ------ ||
|| projectors_init_fftbox_recip         :   161        3.13s   0.071%  ------ ||
|| fourier_apply_box_pair               :  3040        5.04s   0.114% 559.437 ||
|| basis_copy_function_to_box           : 27712        5.92s   0.134%  ------ ||
|| augmentation_screen_dij              :   299        6.41s   0.145%  ------ ||
|| sw_init                              :     1        6.73s   0.152%  ------ ||
|| sparse_embed_hotelling_invert_embed  :    31        9.69s   0.220%  ------ ||
|| ngwf_gradient_coeffs                 :    16       12.89s   0.292%  ------ ||
|| fourier_apply_cell_backward          :  9023       16.34s   0.370%  61.501 ||
|| cell_grid_extract_box_real           : 11772       16.87s   0.382%  ------ ||
|| fourier_apply_cell_forward           :  8440       17.92s   0.406%  52.460 ||
|| sparse_trace                         :  3538       19.65s   0.445%  ------ ||
|| cell_grid_deposit_box_real           : 37552       24.53s   0.556%  ------ ||
|| paw_dij_xc                           :   390       30.78s   0.697%  ------ ||
|| aug_nonlocal_mat                     :   374       44.33s   1.004%  ------ ||
|| density_fftbox_deposit_to_cell       : 18688       49.79s   1.128%  ------ ||
|| eigenstates_pdos                     :     1       53.91s   1.221%  ------ ||
|| augmentation_density_on_grid         :   292       54.45s   1.233%  ------ ||
|| eigenstates_calculate                :     1       58.01s   1.314%  ------ ||
|| function_ops_brappd_ketppd           :    64       65.14s   1.475%  ------ ||
|| hamiltonian_energy_components        :     4       67.27s   1.523%  ------ ||
|| projectors_func_ovlp_box             :    32       78.75s   1.783%  ------ ||
|| nlxc_vdw_energy                      :   582       79.49s   1.800%  ------ ||
|| xc_energy_potential                  :   291       82.66s   1.872%  ------ ||
|| properties_calculate                 :     1      103.58s   2.346%  ------ ||
|| integrals_kinetic                    :    31      117.63s   2.664%  ------ ||
|| dense_eigensolve                     :   256      119.06s   2.696%  ------ ||
|| restart_ngwfs_tightbox_output        :    15      121.85s   2.760%  ------ ||
|| potential_apply_to_ngwf_batch        :   372      146.27s   3.313%  ------ ||
|| sparse_product                       :  3551      156.37s   3.541%  ------ ||
|| basis_dot_function_with_box          : 9.266M     252.20s   5.711%  ------ ||
|| fourier_apply_box                    : 87072      271.68s   6.153% 976.780 ||
|| edft_diag_ngwf_ham                   :   255      275.50s   6.239%  ------ ||
|| projectors_gradient_batch            :    64      300.45s   6.804%  ------ ||
|| integrals_locpot_mat_els_batch       :   372      357.07s   8.086%  ------ ||
|| density_fftbox_interpolate_multiply  : 18688      362.03s   8.199%  ------ ||
|| projectors_grad_precond_batch        :    64      443.47s  10.043%  ------ ||
|| density_batch_interp_deposit         :  1168      456.80s  10.345%  ------ ||
|| integrals_locpot_dbl_grid            :    93      505.30s  11.443%  ------ ||
|| edft_apply_smearing_operator         :   255      546.23s  12.370%  ------ ||
|| basis_add_function_to_box            : 25.88M     675.89s  15.307%  ------ ||
|| ngwf_gradient_build_batch            :    64      792.49s  17.947%  ------ ||
|| density_batch_row_sums               :  1168     1005.41s  22.770%  ------ ||
|| ngwf_gradient_batch                  :    64     1053.97s  23.869%  ------ ||
|| ngwf_gradient_lnv                    :    16     1089.57s  24.675%  ------ ||
|| density_on_dbl_grid                  :   292     1477.83s  33.468%  ------ ||
|| hamiltonian_lhxc_calculate           :   286     1592.83s  36.073%  ------ ||
|| edft_calculate                       :    16     2627.76s  59.510%  ------ ||
|| ngwf_cg_optimise                     :     1     4291.76s  97.195%  ------ ||
|| total_time                           :     1     4415.62s 100.000%  ------ ||
================================================================================
Overhead of generating timer report: 
- 0 ms averaging over threads,
- 5 ms ensuring consistency across MPI ranks,
- 0 ms printing in order.

Job completed: 21-02-2020 16:38 (-0000)

