 +---------------------------------------------------------------+
 |                                                               |
 |        ####### #     # ####### ####### ####### ######         |
 |        #     # ##    # #          #    #       #     #        |
 |        #     # # #   # #          #    #       #     #        |
 |        #     # #  #  # #####      #    #####   ######         |
 |        #     # #   # # #          #    #       #              |
 |        #     # #    ## #          #    #       #              |
 |        ####### #     # #######    #    ####### #              |
 |                                                               |
 |        Linear-Scaling Ab Initio Total Energy Program          |
 |                                                               |
 |          Release for academic collaborators of ODG            |
 |                                             Version 5.3.2.12  |
 |                                                               |
 +---------------------------------------------------------------+
 |                                                               |
 |  Authors:                                                     |
 |  Jacek Dziedzic, Peter D. Haynes, Nicholas D. M. Hine,        |
 |  Arash. A. Mostofi, Mike C. Payne and Chris-Kriton Skylaris   |
 |                                                               |
 |  Contributors:                                                |
 |  J. Aarons, L. Andrinopoulos, P. W. Avraam, R. A. Bell,       |
 |  A. Bhandari, G. A. Bramley, R. J. Charlton, S. J. Clark,     |
 |  R. J. Clements, G. C. Constantinescu, F. Corsetti,           |
 |  N. Corsini, O. Dieguez, S. M. M. Dubois, K. K. B. Duff,      |
 |  J. M. Escartin, A. Greco, H. Helal, Q. O. Hill, L. P. Lee,   |
 |  J.-H. Li, E. B. Linscott, G. Moynihan, D. D. O`Regan,        |
 |  O. K. Okan, M. J. S. Phipps, C. J. Pickard,                  |
 |  J. C. A. Prentice, M. I. J. Probert, L. E. Ratcliff,         |
 |  M. Robinson, A. Ruiz Serrano, J. S. Spencer, E. W. Tait,     |
 |  G. Teobaldi, D. Turban, V. Vitale, K. A. Wilkinson,          |
 |  C. Weber, J. C. Womack, N. Yeung and T. J. Zuehlsdorff       |
 |                                                               |
 |                                   Copyright (c) 2004-2020     |
 |                                                               |
 |  Please cite:                                                 |
 |  "Introducing ONETEP: Linear-scaling density functional       |
 |   simulations on parallel computers".                         |
 |   C.-K. Skylaris, P. D. Haynes, A. A. Mostofi, M. C. Payne.   |
 |   J. Chem. Phys. 122 084119 (2005).                           |
 |                                                               |
 |          in all publications arising from your use of ONETEP. |
 |                                                               |
 +---------------------------------------------------------------+
 |                                                               |
 |   ONETEP is based on developments described in the following  |
 |   publications:                                               |
 |                                                               |
 |  "Nonorthogonal generalized Wannier function pseudopotential  |
 |   plane-wave method".                                         |
 |   C.-K. Skylaris, A. A. Mostofi, P. D. Haynes, O. Dieguez,    |
 |   M. C. Payne.                                                |
 |   Phys. Rev. B 66 035119 (2002).                              |
 |                                                               |
 |  "Preconditioned iterative minimization for linear-scaling    |
 |   electronic structure calculations".                         |
 |   A. A. Mostofi, P. D. Haynes, C.-K. Skylaris, M. C. Payne.   |
 |   J. Chem. Phys. 119(17), pp.8842-8848 (2003).                |
 |                                                               |
 |  "Total-energy calculations on a real space grid with         |
 |   localized functions and a plane-wave basis".                |
 |   A. A. Mostofi, C.-K. Skylaris, P. D. Haynes, M. C. Payne.   |
 |   Comput. Phys. Commun. 147, pp.788-802 (2002).               |
 |                                                               |
 |  "Accurate kinetic energy evaluation in electronic structure  |
 |   calculations with localized functions on real space grids"  |
 |   C.-K. Skylaris, A. A. Mostofi, P. D. Haynes, C. J. Pickard, |
 |   M. C. Payne.                                                |
 |   Comput. Phys. Commun. 140, pp.315-322 (2001).               |
 |                                                               |
 |  "Accurate ionic forces and geometry optimization in linear-  |
 |   scaling density-functional theory with local orbitals"      |
 |   N. D. M. Hine, M. Robinson, P. D. Haynes, C.-K. Skylaris,   |
 |   M. C. Payne, and A. A. Mostofi.                             |
 |   Phys. Rev. B 83 195102 (2011).                              |
 |                                                               |
 +---------------------------------------------------------------+

Job started: 21-02-2020 15:25 (-0000)
 
Reading parameters from file "3.219844_GO_manual_4x64graphite.dat" ...

WARNING: "cutoff_energy" not specified, but "psinc_spacing" specified.
         Using the latter to set the KE cutoff energy to  732.32021eV,
         thus *overriding* the default.

... done

If your calculation crashes here, before "Checking processes and threads..."
is displayed, then your stack size is insufficient.
If so, use "ulimit -s unlimited" at runtime.
You can disable this check with "check_stack_size F".

Checking processes and threads...
   Determining the default number of threads...
      No default threads set at compilation time: defaulting to 1.
      OpenMP library call suggests 4 threads.
      Hybrid MPI-OpenMP compilation detected.
      Number of MPI processes > 1.
      OMP_NUM_THREADS environment variable present and
      its value matches the one obtained from the OpenMP library call.
      Using this value as default.
      Default threads: 4
      Default applies to threads_max and threads_num_fftboxes.
      Settings in the input file override this default.
   ... done

   Running with 40 MPI processes.
   There are 10 MPI processes running on the same node as the root process.
   Each MPI process is using: 
               1 threads for simulation cell FFTs.
               1 threads for parallel FFT box operations.
               4 threads for loops over batched FFT box operations.
               4 threads in other parallel regions.
... done

Basic input checks...
Resetting ngwf_cg_rotate to TRUE for EDFT calculations
... done

Reading geometry and species blocks from file "3.219844_GO_manual_4x64graphite.dat" ...
    
  PSINC grid spacing along a1 set to   0.511215680000a0 from input file.
  PSINC grid spacing along a2 set to   0.531284090000a0 from input file.
  PSINC grid spacing along a3 set to   0.507052980000a0 from input file.
  Number of PPD points along a3 set to 1.  This is 
  the default value, it may have been provided also in the input file.
... done
 Writing xyz coordinates to file "3.219844_GO_manual_4x64graphite.xyz" ... done


--------------------------------------------------------------------------------
---------------------------------- INPUT FILE ----------------------------------
--------------------------------------------------------------------------------

task : singlepoint                                                              
do_properties : true                                                            
dx_format T                                                                     
edft T                                                                          
output_detail VERBOSE                                                           
write_xyz T                                                                     
xc_functional AVV10S                                                            
PSINC_SPACING 0.51121568 0.53128409 0.50705298                                  
paw T                                                                           
pdos_max_l = 2                                                                  
dos_smear  0.1 eV                                                               
popn_calculate T                                                                
PDOS_PSEUDOATOMIC T                                                             
PDOS_REDUCE_SWS F                                                               
PDOS_CONSTRUCT_BASIS F                                                          
PDOS_LOWDIN T                                                                   
PDOS_ORTH_ATOM_BLOCKS F                                                         
PDOS_LCAO_OPTIMIZE F                                                            
pdos_optados_output T                                                           
homo_plot 0                                                                     
lumo_plot 0                                                                     
homo_dens_plot -1                                                               
lumo_dens_plot -1                                                               
%BLOCK SPECIES                                                                  
C C 6 4 9.0                                                                     
%ENDBLOCK SPECIES                                                               
%BLOCK SPECIES_POT                                                              
C "~/pp/paw/c_pbe_abinit.paw"                                                   
%ENDBLOCK SPECIES_POT                                                           
%BLOCK SPECIES_ATOMIC_SET                                                       
C "SOLVE conf=2s2 2p2"                                                          
%ENDBLOCK SPECIES_ATOMIC_SET                                                    
%BLOCK LATTICE_CART                                                             
32.21  0.00  0.00                                                               
0.00 18.59  0.00                                                                
0.00  0.00 60.85                                                                
%ENDBLOCK LATTICE_CART                                                          
%BLOCK POSITIONS_ABS                                                            
C  0.00  0.00  3.04                                                             
C  0.00  0.00 15.21                                                             
C  0.00  0.00 27.38                                                             
C  0.00  0.00 39.55                                                             
C  0.00  0.00 51.72                                                             
C  0.00  4.65  3.04                                                             
C  0.00  4.65 15.21                                                             
C  0.00  4.65 27.38                                                             
C  0.00  4.65 39.55                                                             
C  0.00  4.65 51.72                                                             
C  4.03  2.32  3.04                                                             
C  4.03  2.32 15.21                                                             
C  4.03  2.32 27.38                                                             
C  4.03  2.32 39.55                                                             
C  4.03  2.32 51.72                                                             
C  8.05  0.00  3.04                                                             
C  8.05  0.00 15.21                                                             
C  8.05  0.00 27.38                                                             
C  8.05  0.00 39.55                                                             
C  8.05  0.00 51.72                                                             
C  0.00  9.30  3.04                                                             
C  0.00  9.30 15.21                                                             
C  0.00  9.30 27.38                                                             
C  0.00  9.30 39.55                                                             
C  0.00  9.30 51.72                                                             
C  4.03  6.97  3.04                                                             
C  4.03  6.97 15.21                                                             
C  4.03  6.97 27.38                                                             
C  4.03  6.97 39.55                                                             
C  4.03  6.97 51.72                                                             
C  8.05  4.65  3.04                                                             
C  8.05  4.65 15.21                                                             
C  8.05  4.65 27.38                                                             
C  8.05  4.65 39.55                                                             
C  8.05  4.65 51.72                                                             
C 12.08  2.32  3.04                                                             
C 12.08  2.32 15.21                                                             
C 12.08  2.32 27.38                                                             
C 12.08  2.32 39.55                                                             
C 12.08  2.32 51.72                                                             
C 16.10  0.00  3.04                                                             
C 16.10  0.00 15.21                                                             
C 16.10  0.00 27.38                                                             
C 16.10  0.00 39.55                                                             
C 16.10  0.00 51.72                                                             
C  0.00 13.95  3.04                                                             
C  0.00 13.95 15.21                                                             
C  0.00 13.95 27.38                                                             
C  0.00 13.95 39.55                                                             
C  0.00 13.95 51.72                                                             
C  4.03 11.62  3.04                                                             
C  4.03 11.62 15.21                                                             
C  4.03 11.62 27.38                                                             
C  4.03 11.62 39.55                                                             
C  4.03 11.62 51.72                                                             
C  8.05  9.30  3.04                                                             
C  8.05  9.30 15.21                                                             
C  8.05  9.30 27.38                                                             
C  8.05  9.30 39.55                                                             
C  8.05  9.30 51.72                                                             
C 12.08  6.97  3.04                                                             
C 12.08  6.97 15.21                                                             
C 12.08  6.97 27.38                                                             
C 12.08  6.97 39.55                                                             
C 12.08  6.97 51.72                                                             
C 16.10  4.65  3.04                                                             
C 16.10  4.65 15.21                                                             
C 16.10  4.65 27.38                                                             
C 16.10  4.65 39.55                                                             
C 16.10  4.65 51.72                                                             
C 20.13  2.32  3.04                                                             
C 20.13  2.32 15.21                                                             
C 20.13  2.32 27.38                                                             
C 20.13  2.32 39.55                                                             
C 20.13  2.32 51.72                                                             
C 24.16  0.00  3.04                                                             
C 24.16  0.00 15.21                                                             
C 24.16  0.00 27.38                                                             
C 24.16  0.00 39.55                                                             
C 24.16  0.00 51.72                                                             
C  4.03 16.27  3.04                                                             
C  4.03 16.27 15.21                                                             
C  4.03 16.27 27.38                                                             
C  4.03 16.27 39.55                                                             
C  4.03 16.27 51.72                                                             
C  8.05 13.95  3.04                                                             
C  8.05 13.95 15.21                                                             
C  8.05 13.95 27.38                                                             
C  8.05 13.95 39.55                                                             
C  8.05 13.95 51.72                                                             
C 12.08 11.62  3.04                                                             
C 12.08 11.62 15.21                                                             
C 12.08 11.62 27.38                                                             
C 12.08 11.62 39.55                                                             
C 12.08 11.62 51.72                                                             
C 16.10  9.30  3.04                                                             
C 16.10  9.30 15.21                                                             
C 16.10  9.30 27.38                                                             
C 16.10  9.30 39.55                                                             
C 16.10  9.30 51.72                                                             
C 20.13  6.97  3.04                                                             
C 20.13  6.97 15.21                                                             
C 20.13  6.97 27.38                                                             
C 20.13  6.97 39.55                                                             
C 20.13  6.97 51.72                                                             
C 24.16  4.65  3.04                                                             
C 24.16  4.65 15.21                                                             
C 24.16  4.65 27.38                                                             
C 24.16  4.65 39.55                                                             
C 24.16  4.65 51.72                                                             
C 28.18  2.32  3.04                                                             
C 28.18  2.32 15.21                                                             
C 28.18  2.32 27.38                                                             
C 28.18  2.32 39.55                                                             
C 28.18  2.32 51.72                                                             
C 12.08 16.27  3.04                                                             
C 12.08 16.27 15.21                                                             
C 12.08 16.27 27.38                                                             
C 12.08 16.27 39.55                                                             
C 12.08 16.27 51.72                                                             
C 16.10 13.95  3.04                                                             
C 16.10 13.95 15.21                                                             
C 16.10 13.95 27.38                                                             
C 16.10 13.95 39.55                                                             
C 16.10 13.95 51.72                                                             
C 20.13 11.62  3.04                                                             
C 20.13 11.62 15.21                                                             
C 20.13 11.62 27.38                                                             
C 20.13 11.62 39.55                                                             
C 20.13 11.62 51.72                                                             
C 24.16  9.30  3.04                                                             
C 24.16  9.30 15.21                                                             
C 24.16  9.30 27.38                                                             
C 24.16  9.30 39.55                                                             
C 24.16  9.30 51.72                                                             
C 28.18  6.97  3.04                                                             
C 28.18  6.97 15.21                                                             
C 28.18  6.97 27.38                                                             
C 28.18  6.97 39.55                                                             
C 28.18  6.97 51.72                                                             
C 20.13 16.27  3.04                                                             
C 20.13 16.27 15.21                                                             
C 20.13 16.27 27.38                                                             
C 20.13 16.27 39.55                                                             
C 20.13 16.27 51.72                                                             
C 24.16 13.95  3.04                                                             
C 24.16 13.95 15.21                                                             
C 24.16 13.95 27.38                                                             
C 24.16 13.95 39.55                                                             
C 24.16 13.95 51.72                                                             
C 28.18 11.62  3.04                                                             
C 28.18 11.62 15.21                                                             
C 28.18 11.62 27.38                                                             
C 28.18 11.62 39.55                                                             
C 28.18 11.62 51.72                                                             
C 28.18 16.27  3.04                                                             
C 28.18 16.27 15.21                                                             
C 28.18 16.27 27.38                                                             
C 28.18 16.27 39.55                                                             
C 28.18 16.27 51.72                                                             
C  0.00  0.00  9.13                                                             
C  0.00  0.00 21.30                                                             
C  0.00  0.00 33.47                                                             
C  0.00  0.00 45.63                                                             
C  0.00  0.00 57.80                                                             
C  0.00  4.65  9.13                                                             
C  0.00  4.65 21.30                                                             
C  0.00  4.65 33.47                                                             
C  0.00  4.65 45.63                                                             
C  0.00  4.65 57.80                                                             
C  4.03  2.32  9.13                                                             
C  4.03  2.32 21.30                                                             
C  4.03  2.32 33.47                                                             
C  4.03  2.32 45.63                                                             
C  4.03  2.32 57.80                                                             
C  8.05  0.00  9.13                                                             
C  8.05  0.00 21.30                                                             
C  8.05  0.00 33.47                                                             
C  8.05  0.00 45.63                                                             
C  8.05  0.00 57.80                                                             
C  0.00  9.30  9.13                                                             
C  0.00  9.30 21.30                                                             
C  0.00  9.30 33.47                                                             
C  0.00  9.30 45.63                                                             
C  0.00  9.30 57.80                                                             
C  4.03  6.97  9.13                                                             
C  4.03  6.97 21.30                                                             
C  4.03  6.97 33.47                                                             
C  4.03  6.97 45.63                                                             
C  4.03  6.97 57.80                                                             
C  8.05  4.65  9.13                                                             
C  8.05  4.65 21.30                                                             
C  8.05  4.65 33.47                                                             
C  8.05  4.65 45.63                                                             
C  8.05  4.65 57.80                                                             
C 12.08  2.32  9.13                                                             
C 12.08  2.32 21.30                                                             
C 12.08  2.32 33.47                                                             
C 12.08  2.32 45.63                                                             
C 12.08  2.32 57.80                                                             
C 16.10  0.00  9.13                                                             
C 16.10  0.00 21.30                                                             
C 16.10  0.00 33.47                                                             
C 16.10  0.00 45.63                                                             
C 16.10  0.00 57.80                                                             
C  0.00 13.95  9.13                                                             
C  0.00 13.95 21.30                                                             
C  0.00 13.95 33.47                                                             
C  0.00 13.95 45.63                                                             
C  0.00 13.95 57.80                                                             
C  4.03 11.62  9.13                                                             
C  4.03 11.62 21.30                                                             
C  4.03 11.62 33.47                                                             
C  4.03 11.62 45.63                                                             
C  4.03 11.62 57.80                                                             
C  8.05  9.30  9.13                                                             
C  8.05  9.30 21.30                                                             
C  8.05  9.30 33.47                                                             
C  8.05  9.30 45.63                                                             
C  8.05  9.30 57.80                                                             
C 12.08  6.97  9.13                                                             
C 12.08  6.97 21.30                                                             
C 12.08  6.97 33.47                                                             
C 12.08  6.97 45.63                                                             
C 12.08  6.97 57.80                                                             
C 16.10  4.65  9.13                                                             
C 16.10  4.65 21.30                                                             
C 16.10  4.65 33.47                                                             
C 16.10  4.65 45.63                                                             
C 16.10  4.65 57.80                                                             
C 20.13  2.32  9.13                                                             
C 20.13  2.32 21.30                                                             
C 20.13  2.32 33.47                                                             
C 20.13  2.32 45.63                                                             
C 20.13  2.32 57.80                                                             
C 24.16  0.00  9.13                                                             
C 24.16  0.00 21.30                                                             
C 24.16  0.00 33.47                                                             
C 24.16  0.00 45.63                                                             
C 24.16  0.00 57.80                                                             
C  4.03 16.27  9.13                                                             
C  4.03 16.27 21.30                                                             
C  4.03 16.27 33.47                                                             
C  4.03 16.27 45.63                                                             
C  4.03 16.27 57.80                                                             
C  8.05 13.95  9.13                                                             
C  8.05 13.95 21.30                                                             
C  8.05 13.95 33.47                                                             
C  8.05 13.95 45.63                                                             
C  8.05 13.95 57.80                                                             
C 12.08 11.62  9.13                                                             
C 12.08 11.62 21.30                                                             
C 12.08 11.62 33.47                                                             
C 12.08 11.62 45.63                                                             
C 12.08 11.62 57.80                                                             
C 16.10  9.30  9.13                                                             
C 16.10  9.30 21.30                                                             
C 16.10  9.30 33.47                                                             
C 16.10  9.30 45.63                                                             
C 16.10  9.30 57.80                                                             
C 20.13  6.97  9.13                                                             
C 20.13  6.97 21.30                                                             
C 20.13  6.97 33.47                                                             
C 20.13  6.97 45.63                                                             
C 20.13  6.97 57.80                                                             
C 24.16  4.65  9.13                                                             
C 24.16  4.65 21.30                                                             
C 24.16  4.65 33.47                                                             
C 24.16  4.65 45.63                                                             
C 24.16  4.65 57.80                                                             
C 28.18  2.32  9.13                                                             
C 28.18  2.32 21.30                                                             
C 28.18  2.32 33.47                                                             
C 28.18  2.32 45.63                                                             
C 28.18  2.32 57.80                                                             
C 12.08 16.27  9.13                                                             
C 12.08 16.27 21.30                                                             
C 12.08 16.27 33.47                                                             
C 12.08 16.27 45.63                                                             
C 12.08 16.27 57.80                                                             
C 16.10 13.95  9.13                                                             
C 16.10 13.95 21.30                                                             
C 16.10 13.95 33.47                                                             
C 16.10 13.95 45.63                                                             
C 16.10 13.95 57.80                                                             
C 20.13 11.62  9.13                                                             
C 20.13 11.62 21.30                                                             
C 20.13 11.62 33.47                                                             
C 20.13 11.62 45.63                                                             
C 20.13 11.62 57.80                                                             
C 24.16  9.30  9.13                                                             
C 24.16  9.30 21.30                                                             
C 24.16  9.30 33.47                                                             
C 24.16  9.30 45.63                                                             
C 24.16  9.30 57.80                                                             
C 28.18  6.97  9.13                                                             
C 28.18  6.97 21.30                                                             
C 28.18  6.97 33.47                                                             
C 28.18  6.97 45.63                                                             
C 28.18  6.97 57.80                                                             
C 20.13 16.27  9.13                                                             
C 20.13 16.27 21.30                                                             
C 20.13 16.27 33.47                                                             
C 20.13 16.27 45.63                                                             
C 20.13 16.27 57.80                                                             
C 24.16 13.95  9.13                                                             
C 24.16 13.95 21.30                                                             
C 24.16 13.95 33.47                                                             
C 24.16 13.95 45.63                                                             
C 24.16 13.95 57.80                                                             
C 28.18 11.62  9.13                                                             
C 28.18 11.62 21.30                                                             
C 28.18 11.62 33.47                                                             
C 28.18 11.62 45.63                                                             
C 28.18 11.62 57.80                                                             
C 28.18 16.27  9.13                                                             
C 28.18 16.27 21.30                                                             
C 28.18 16.27 33.47                                                             
C 28.18 16.27 45.63                                                             
C 28.18 16.27 57.80                                                             
C  1.34  2.32  3.04                                                             
C  1.34  2.32 15.21                                                             
C  1.34  2.32 27.38                                                             
C  1.34  2.32 39.55                                                             
C  1.34  2.32 51.72                                                             
C  5.37  0.00  3.04                                                             
C  5.37  0.00 15.21                                                             
C  5.37  0.00 27.38                                                             
C  5.37  0.00 39.55                                                             
C  5.37  0.00 51.72                                                             
C  1.34  6.97  3.04                                                             
C  1.34  6.97 15.21                                                             
C  1.34  6.97 27.38                                                             
C  1.34  6.97 39.55                                                             
C  1.34  6.97 51.72                                                             
C  5.37  4.65  3.04                                                             
C  5.37  4.65 15.21                                                             
C  5.37  4.65 27.38                                                             
C  5.37  4.65 39.55                                                             
C  5.37  4.65 51.72                                                             
C  9.39  2.32  3.04                                                             
C  9.39  2.32 15.21                                                             
C  9.39  2.32 27.38                                                             
C  9.39  2.32 39.55                                                             
C  9.39  2.32 51.72                                                             
C 13.42  0.00  3.04                                                             
C 13.42  0.00 15.21                                                             
C 13.42  0.00 27.38                                                             
C 13.42  0.00 39.55                                                             
C 13.42  0.00 51.72                                                             
C  1.34 11.62  3.04                                                             
C  1.34 11.62 15.21                                                             
C  1.34 11.62 27.38                                                             
C  1.34 11.62 39.55                                                             
C  1.34 11.62 51.72                                                             
C  5.37  9.30  3.04                                                             
C  5.37  9.30 15.21                                                             
C  5.37  9.30 27.38                                                             
C  5.37  9.30 39.55                                                             
C  5.37  9.30 51.72                                                             
C  9.39  6.97  3.04                                                             
C  9.39  6.97 15.21                                                             
C  9.39  6.97 27.38                                                             
C  9.39  6.97 39.55                                                             
C  9.39  6.97 51.72                                                             
C 13.42  4.65  3.04                                                             
C 13.42  4.65 15.21                                                             
C 13.42  4.65 27.38                                                             
C 13.42  4.65 39.55                                                             
C 13.42  4.65 51.72                                                             
C 17.45  2.32  3.04                                                             
C 17.45  2.32 15.21                                                             
C 17.45  2.32 27.38                                                             
C 17.45  2.32 39.55                                                             
C 17.45  2.32 51.72                                                             
C 21.47  0.00  3.04                                                             
C 21.47  0.00 15.21                                                             
C 21.47  0.00 27.38                                                             
C 21.47  0.00 39.55                                                             
C 21.47  0.00 51.72                                                             
C  1.34 16.27  3.04                                                             
C  1.34 16.27 15.21                                                             
C  1.34 16.27 27.38                                                             
C  1.34 16.27 39.55                                                             
C  1.34 16.27 51.72                                                             
C  5.37 13.95  3.04                                                             
C  5.37 13.95 15.21                                                             
C  5.37 13.95 27.38                                                             
C  5.37 13.95 39.55                                                             
C  5.37 13.95 51.72                                                             
C  9.39 11.62  3.04                                                             
C  9.39 11.62 15.21                                                             
C  9.39 11.62 27.38                                                             
C  9.39 11.62 39.55                                                             
C  9.39 11.62 51.72                                                             
C 13.42  9.30  3.04                                                             
C 13.42  9.30 15.21                                                             
C 13.42  9.30 27.38                                                             
C 13.42  9.30 39.55                                                             
C 13.42  9.30 51.72                                                             
C 17.45  6.97  3.04                                                             
C 17.45  6.97 15.21                                                             
C 17.45  6.97 27.38                                                             
C 17.45  6.97 39.55                                                             
C 17.45  6.97 51.72                                                             
C 21.47  4.65  3.04                                                             
C 21.47  4.65 15.21                                                             
C 21.47  4.65 27.38                                                             
C 21.47  4.65 39.55                                                             
C 21.47  4.65 51.72                                                             
C 25.50  2.32  3.04                                                             
C 25.50  2.32 15.21                                                             
C 25.50  2.32 27.38                                                             
C 25.50  2.32 39.55                                                             
C 25.50  2.32 51.72                                                             
C 29.52  0.00  3.04                                                             
C 29.52  0.00 15.21                                                             
C 29.52  0.00 27.38                                                             
C 29.52  0.00 39.55                                                             
C 29.52  0.00 51.72                                                             
C  9.39 16.27  3.04                                                             
C  9.39 16.27 15.21                                                             
C  9.39 16.27 27.38                                                             
C  9.39 16.27 39.55                                                             
C  9.39 16.27 51.72                                                             
C 13.42 13.95  3.04                                                             
C 13.42 13.95 15.21                                                             
C 13.42 13.95 27.38                                                             
C 13.42 13.95 39.55                                                             
C 13.42 13.95 51.72                                                             
C 17.45 11.62  3.04                                                             
C 17.45 11.62 15.21                                                             
C 17.45 11.62 27.38                                                             
C 17.45 11.62 39.55                                                             
C 17.45 11.62 51.72                                                             
C 21.47  9.30  3.04                                                             
C 21.47  9.30 15.21                                                             
C 21.47  9.30 27.38                                                             
C 21.47  9.30 39.55                                                             
C 21.47  9.30 51.72                                                             
C 25.50  6.97  3.04                                                             
C 25.50  6.97 15.21                                                             
C 25.50  6.97 27.38                                                             
C 25.50  6.97 39.55                                                             
C 25.50  6.97 51.72                                                             
C 29.52  4.65  3.04                                                             
C 29.52  4.65 15.21                                                             
C 29.52  4.65 27.38                                                             
C 29.52  4.65 39.55                                                             
C 29.52  4.65 51.72                                                             
C 17.45 16.27  3.04                                                             
C 17.45 16.27 15.21                                                             
C 17.45 16.27 27.38                                                             
C 17.45 16.27 39.55                                                             
C 17.45 16.27 51.72                                                             
C 21.47 13.95  3.04                                                             
C 21.47 13.95 15.21                                                             
C 21.47 13.95 27.38                                                             
C 21.47 13.95 39.55                                                             
C 21.47 13.95 51.72                                                             
C 25.50 11.62  3.04                                                             
C 25.50 11.62 15.21                                                             
C 25.50 11.62 27.38                                                             
C 25.50 11.62 39.55                                                             
C 25.50 11.62 51.72                                                             
C 29.52  9.30  3.04                                                             
C 29.52  9.30 15.21                                                             
C 29.52  9.30 27.38                                                             
C 29.52  9.30 39.55                                                             
C 29.52  9.30 51.72                                                             
C 25.50 16.27  3.04                                                             
C 25.50 16.27 15.21                                                             
C 25.50 16.27 27.38                                                             
C 25.50 16.27 39.55                                                             
C 25.50 16.27 51.72                                                             
C 29.52 13.95  3.04                                                             
C 29.52 13.95 15.21                                                             
C 29.52 13.95 27.38                                                             
C 29.52 13.95 39.55                                                             
C 29.52 13.95 51.72                                                             
C  2.68  0.00  9.13                                                             
C  2.68  0.00 21.30                                                             
C  2.68  0.00 33.47                                                             
C  2.68  0.00 45.63                                                             
C  2.68  0.00 57.80                                                             
C  2.68  4.65  9.13                                                             
C  2.68  4.65 21.30                                                             
C  2.68  4.65 33.47                                                             
C  2.68  4.65 45.63                                                             
C  2.68  4.65 57.80                                                             
C  6.71  2.32  9.13                                                             
C  6.71  2.32 21.30                                                             
C  6.71  2.32 33.47                                                             
C  6.71  2.32 45.63                                                             
C  6.71  2.32 57.80                                                             
C 10.74  0.00  9.13                                                             
C 10.74  0.00 21.30                                                             
C 10.74  0.00 33.47                                                             
C 10.74  0.00 45.63                                                             
C 10.74  0.00 57.80                                                             
C  2.68  9.30  9.13                                                             
C  2.68  9.30 21.30                                                             
C  2.68  9.30 33.47                                                             
C  2.68  9.30 45.63                                                             
C  2.68  9.30 57.80                                                             
C  6.71  6.97  9.13                                                             
C  6.71  6.97 21.30                                                             
C  6.71  6.97 33.47                                                             
C  6.71  6.97 45.63                                                             
C  6.71  6.97 57.80                                                             
C 10.74  4.65  9.13                                                             
C 10.74  4.65 21.30                                                             
C 10.74  4.65 33.47                                                             
C 10.74  4.65 45.63                                                             
C 10.74  4.65 57.80                                                             
C 14.76  2.32  9.13                                                             
C 14.76  2.32 21.30                                                             
C 14.76  2.32 33.47                                                             
C 14.76  2.32 45.63                                                             
C 14.76  2.32 57.80                                                             
C 18.79  0.00  9.13                                                             
C 18.79  0.00 21.30                                                             
C 18.79  0.00 33.47                                                             
C 18.79  0.00 45.63                                                             
C 18.79  0.00 57.80                                                             
C  2.68 13.95  9.13                                                             
C  2.68 13.95 21.30                                                             
C  2.68 13.95 33.47                                                             
C  2.68 13.95 45.63                                                             
C  2.68 13.95 57.80                                                             
C  6.71 11.62  9.13                                                             
C  6.71 11.62 21.30                                                             
C  6.71 11.62 33.47                                                             
C  6.71 11.62 45.63                                                             
C  6.71 11.62 57.80                                                             
C 10.74  9.30  9.13                                                             
C 10.74  9.30 21.30                                                             
C 10.74  9.30 33.47                                                             
C 10.74  9.30 45.63                                                             
C 10.74  9.30 57.80                                                             
C 14.76  6.97  9.13                                                             
C 14.76  6.97 21.30                                                             
C 14.76  6.97 33.47                                                             
C 14.76  6.97 45.63                                                             
C 14.76  6.97 57.80                                                             
C 18.79  4.65  9.13                                                             
C 18.79  4.65 21.30                                                             
C 18.79  4.65 33.47                                                             
C 18.79  4.65 45.63                                                             
C 18.79  4.65 57.80                                                             
C 22.81  2.32  9.13                                                             
C 22.81  2.32 21.30                                                             
C 22.81  2.32 33.47                                                             
C 22.81  2.32 45.63                                                             
C 22.81  2.32 57.80                                                             
C 26.84  0.00  9.13                                                             
C 26.84  0.00 21.30                                                             
C 26.84  0.00 33.47                                                             
C 26.84  0.00 45.63                                                             
C 26.84  0.00 57.80                                                             
C  6.71 16.27  9.13                                                             
C  6.71 16.27 21.30                                                             
C  6.71 16.27 33.47                                                             
C  6.71 16.27 45.63                                                             
C  6.71 16.27 57.80                                                             
C 10.74 13.95  9.13                                                             
C 10.74 13.95 21.30                                                             
C 10.74 13.95 33.47                                                             
C 10.74 13.95 45.63                                                             
C 10.74 13.95 57.80                                                             
C 14.76 11.62  9.13                                                             
C 14.76 11.62 21.30                                                             
C 14.76 11.62 33.47                                                             
C 14.76 11.62 45.63                                                             
C 14.76 11.62 57.80                                                             
C 18.79  9.30  9.13                                                             
C 18.79  9.30 21.30                                                             
C 18.79  9.30 33.47                                                             
C 18.79  9.30 45.63                                                             
C 18.79  9.30 57.80                                                             
C 22.81  6.97  9.13                                                             
C 22.81  6.97 21.30                                                             
C 22.81  6.97 33.47                                                             
C 22.81  6.97 45.63                                                             
C 22.81  6.97 57.80                                                             
C 26.84  4.65  9.13                                                             
C 26.84  4.65 21.30                                                             
C 26.84  4.65 33.47                                                             
C 26.84  4.65 45.63                                                             
C 26.84  4.65 57.80                                                             
C 30.86  2.32  9.13                                                             
C 30.86  2.32 21.30                                                             
C 30.86  2.32 33.47                                                             
C 30.86  2.32 45.63                                                             
C 30.86  2.32 57.80                                                             
C 14.76 16.27  9.13                                                             
C 14.76 16.27 21.30                                                             
C 14.76 16.27 33.47                                                             
C 14.76 16.27 45.63                                                             
C 14.76 16.27 57.80                                                             
C 18.79 13.95  9.13                                                             
C 18.79 13.95 21.30                                                             
C 18.79 13.95 33.47                                                             
C 18.79 13.95 45.63                                                             
C 18.79 13.95 57.80                                                             
C 22.81 11.62  9.13                                                             
C 22.81 11.62 21.30                                                             
C 22.81 11.62 33.47                                                             
C 22.81 11.62 45.63                                                             
C 22.81 11.62 57.80                                                             
C 26.84  9.30  9.13                                                             
C 26.84  9.30 21.30                                                             
C 26.84  9.30 33.47                                                             
C 26.84  9.30 45.63                                                             
C 26.84  9.30 57.80                                                             
C 30.86  6.97  9.13                                                             
C 30.86  6.97 21.30                                                             
C 30.86  6.97 33.47                                                             
C 30.86  6.97 45.63                                                             
C 30.86  6.97 57.80                                                             
C 22.81 16.27  9.13                                                             
C 22.81 16.27 21.30                                                             
C 22.81 16.27 33.47                                                             
C 22.81 16.27 45.63                                                             
C 22.81 16.27 57.80                                                             
C 26.84 13.95  9.13                                                             
C 26.84 13.95 21.30                                                             
C 26.84 13.95 33.47                                                             
C 26.84 13.95 45.63                                                             
C 26.84 13.95 57.80                                                             
C 30.86 11.62  9.13                                                             
C 30.86 11.62 21.30                                                             
C 30.86 11.62 33.47                                                             
C 30.86 11.62 45.63                                                             
C 30.86 11.62 57.80                                                             
C 30.86 16.27  9.13                                                             
C 30.86 16.27 21.30                                                             
C 30.86 16.27 33.47                                                             
C 30.86 16.27 45.63                                                             
C 30.86 16.27 57.80                                                             
%ENDBLOCK POSITIONS_ABS                                                         

--------------------------------------------------------------------------------
-------------------------------- END INPUT FILE --------------------------------
--------------------------------------------------------------------------------


 
<<<<<<<<<<<<<<<<<<<<<<<<<<<<<<<<< Full system >>>>>>>>>>>>>>>>>>>>>>>>>>>>>>>>>>
<<<<<<<<<<<<<<<<<<<<<<<<<<< PAW Dataset information >>>>>>>>>>>>>>>>>>>>>>>>>>>
File: ~/pp/paw/c_pbe_abinit.paw; rc = 1.25 bohr; shape type =  3; rshape = 1.25 bohr;
  Atomic number:  6;  ionic charge:  4.000000
    Partial Wave 1: l = 0
    Partial Wave 2: l = 0
    Partial Wave 3: l = 1
    Partial Wave 4: l = 1
  Core charge supplied for Nonlinear Core Corrections
<<<<<<<<<<<<<<<<<<<<<<<<<<<<<<<<<<<<<<< >>>>>>>>>>>>>>>>>>>>>>>>>>>>>>>>>>>>>>>

-------------------------- Atom counting information ---------------------------
Symbol    Natoms    Nngwfs    Nprojs
  C        640      2560      5120
.......   ......    ......    ......
Totals:    640      2560      5120
--------------------------------------------------------------------------------

=============================== PSINC grid sizes ===============================
                      Simulation cell:   63 x  35 x 120
                              FFT-box:   63 x  35 x 117
                                  PPD:    7 x   5 x   1
Grid space d1=  0.511269841270a0 (KE cutoff=  29.06054Eh = 790.77748eV)
Grid space d2=  0.531142857143a0 (KE cutoff=  26.92659Eh = 732.70972eV)
Grid space d3=  0.507083333333a0 (KE cutoff=  29.54237Eh = 803.88878eV)
================================================================================
  
WARNING in cell_grid_distribute:
Average of less than one 23-slab per node, so workload cannot be
equally balanced between nodes.

********************* Fourier parallelisation information **********************
       Coarse grid (whole simulation cell) dimensions:     63    35   120
          Real-space ('12') slabs/node (min max mean):      3     3     3
         Recip-space ('23') slabs/node (min max mean):      0     1     0
********************************************************************************

********************* Fourier parallelisation information **********************
       Double grid (whole simulation cell) dimensions:    126    70   240
          Real-space ('12') slabs/node (min max mean):      6     6     6
         Recip-space ('23') slabs/node (min max mean):      1     2     1
********************************************************************************

Atom SCF Calculation for C  : Z (AE atom) =   6 : Z (PS atom) =   4
Config String: 2s2 2p2
Orbitals (num,occ):  2     2.00 2.00
Orbitals   (num,l):  2        0    1
Real-space Grid (nr,dr,rmax): 1293    0.0069659443    9.0000000000
Spherical Bessel Basis (nsws,lmax,cutoff):   37    2  161.4736382572
Confining potential (l,width,scale):  0    3.0000000000  100.0000000000
Confining potential (l,width,scale):  1    3.0000000000  100.0000000000
  1         -5.4129360987   -1.2444937266    4.5135257941   -1.5420271367
  2         -5.3444202281   -1.3377187790    4.4131101426   -1.5071921700
  3         -5.3525226456   -1.3566567794    4.3924752240   -1.5004938544
  4         -5.3561013121   -1.3623552809    4.3862114699   -1.4986199617
  5         -5.3580093800   -1.3653574582    4.3828991843   -1.4976654093
  6         -5.3590276761   -1.3669475005    4.3811409016   -1.4971696795
  7         -5.3595688314   -1.3677934914    4.3802040659   -1.4969088858
  8         -5.3598556216   -1.3682449178    4.3797036984   -1.4967706290
  9         -5.3600074081   -1.3684862338    4.3794360452   -1.4966970063
 10         -5.3600877081   -1.3686153812    4.3792927313   -1.4966576988
 11         -5.3601301919   -1.3686845537    4.3792159394   -1.4966366788
 12         -5.3601526758   -1.3687216261    4.3791747687   -1.4966254262
 13         -5.3601645804   -1.3687415049    4.3791526850   -1.4966193980
 14         -5.3601708871   -1.3687521691    4.3791408341   -1.4966161667
 15         -5.3601742301   -1.3687578926    4.3791344719   -1.4966144337
 16         -5.3601760032   -1.3687609656    4.3791310549   -1.4966135039
 17         -5.3601769442   -1.3687626162    4.3791292190   -1.4966130048
 18         -5.3601774440   -1.3687635032    4.3791282322   -1.4966127369
 19         -5.3601777096   -1.3687639799    4.3791277016   -1.4966125929
 20         -5.3601778508   -1.3687642363    4.3791274162   -1.4966125155
 21         -5.3601779259   -1.3687643743    4.3791272626   -1.4966124740
Atom SCF converged after  21 iterations to a total energy of     -5.36017793

Determining parallel strategy ...
... using space-filling curve
... NGWF load balancing: max     64;  min     64;  average     64
... Projector load balancing: max    128;  min    128;  average    128
... done
Calculating Ewald energy ...
              Ewald: real-space energy =    9523.472672
        Ewald: reciprocal-space energy =       0.052232
         Ewald: (sum_charge)**2 Energy =   11469.549972
         Ewald: (sum_charge**2) Energy =     906.747541
                          Ewald Energy =   -2852.772608
Basis initialisation ...... NGWF spheres initialised
... Projector spheres initialised
... NGWF tight boxes initialised
... Projector tight boxes initialised
... Tight-boxes gathered
... NGWF basis size (local,global):     692756  27873568
... PAW projector initialisation
... done

============================= Charge Augmentation ==============================
                           Aug box size:   11 x  11 x  11
================================================================================

========================== Sparse matrix information ===========================
                        Overlap matrix filling:  44.38%
                        Density kernel filling: 100.00%
              NGWF-Proj overlap matrix filling:  13.12%
                    Aug Overlap matrix filling:  47.81%
                    Hamiltonian matrix filling:  47.81%
                  NGWF diagonal matrix filling:   0.16%
                             KS matrix filling: 100.00% 
                           KSKS matrix filling: 100.00% 
================================================================================

Sparse matrix initialisation ... done
NGWF initialisation ...... done
============ Calculation of NGWF S^-1 using Hotelling algorithm ================ 
         Iteration  |  Frobenius norm and Maximum abs value    (of I-S*S_n^-1)   
               1       0.49227262E+02     0.97821507E+00
               2       0.48114058E+02     0.95819247E+00
               3       0.46410825E+02     0.92247716E+00
               4       0.44154165E+02     0.86368411E+00
               5       0.41419595E+02     0.77597368E+00
               6       0.38185060E+02     0.69111874E+00
               7       0.34713500E+02     0.64152917E+00
               8       0.31405097E+02     0.60093774E+00
               9       0.28040639E+02     0.56117525E+00
              10       0.23921645E+02     0.50222624E+00
              11       0.18512005E+02     0.40593763E+00
              12       0.11936117E+02     0.26984390E+00
              13       0.55884000E+01     0.12544710E+00
              14       0.14548302E+01     0.30474889E-01
              15       0.11737759E+00     0.21763008E-02
              16       0.93901579E-03     0.13985002E-04
              17       0.87550778E-07     0.83644958E-09
              18       0.87038786E-13     0.46629367E-14
================================================================================
Calculating core density ...
================================= Core Density =================================
               Core den box size:   21 x  21 x  21
================================================================================
 ... done
Up spin density kernel initialisation ...... done

Writing density kernel to file "3.219844_GO_manual_4x64graphite.dkn" ... done

>>> Optimising kernel for current NGWFs:

--------------------------- Ensemble-DFT optimisation --------------------------
Running ScaLAPACK on   40 processor(s).

--------------------------------------------------------------------------------
  Iter                              Commutator    Free_energy(A=E-TS)     DeltaA
#    0                          0.000049156773   -3619.33987556186594  -3.62E+03

Step                       =       0.381966011250
Energy                     =   -3619.339840320134
Entropy (-TS)              =      -0.000035241737
Free energy (A=E-TS)       =   -3619.339875561866
Est. 0K Energy 0.5*(E+A)   =   -3619.339857941000
Residual Non-orthogonality =       0.000000000000
Residual N_electrons       =       0.000000000005

Spin          Integrated_Ne            Fermi_level     Delta_Fermi_level
   1      2559.999999999980         0.237182159202              2.37E-01

                           Spin 1          
     Orb      H-eigenvalues     Occupancies
       1 |    -0.4897702306    1.0000000000 | 
                          ------
    1276 |     0.2038778102    0.9999729198 | 
    1277 |     0.2044950090    0.9999670928 | 
    1278 |     0.2044989281    0.9999670520 | 
    1279 |     0.2048993154    0.9999626117 | 
    1280 |     0.2055082265    0.9999546855 | 
                 - Gap at zero temperature -
    1281 |     0.2712932663    0.0000209902 | 
    1282 |     0.2712992252    0.0000209507 | 
    1283 |     0.2714432716    0.0000200191 | 
    1284 |     0.2715127709    0.0000195845 | 
    1285 |     0.2715187127    0.0000195478 | 
                          ------
    2560 |     1.0786331533    0.0000000000 | 

                       |  Abs_value |  Threshold | Converged
     Delta_Free_energy |   3.62E+03 |   1.00E-06 |        No
     Delta_Energy      |   3.62E+03 |   1.00E-04 |        No
     Delta_Entropy     |   3.52E-05 |   1.00E-04 |       Yes
     Commutator        |   4.92E-05 |   1.00E-05 |        No
     Delta_Fermi_level |   2.37E-01 |   1.00E-03 |        No

  Line search of the free energy minimum:
  Step_type        Step             Free_energy   Predicted_free_energy
.   Initial    0.000000    -3619.33987556186594
.    Trial1    0.381966    -3619.34254900751648
.    Trial2    0.618034    -3619.34228114414782
. Quadratic    0.456892    -3619.34262278741335    -3619.34262289051821

--------------------------------------------------------------------------------
  Iter                              Commutator    Free_energy(A=E-TS)     DeltaA
#    1                          0.000023995187   -3619.34262278741335  -2.75E-03

Step                       =       0.456891593406
Energy                     =   -3619.342587202082
Entropy (-TS)              =      -0.000035585052
Free energy (A=E-TS)       =   -3619.342622787413
Est. 0K Energy 0.5*(E+A)   =   -3619.342604994747
Residual Non-orthogonality =       0.000000000000
Residual N_electrons       =      -0.000000000280

Spin          Integrated_Ne            Fermi_level     Delta_Fermi_level
   1      2560.000000001175         0.238148584842              9.66E-04

                           Spin 1          
     Orb      H-eigenvalues     Occupancies
       1 |    -0.4886114013    1.0000000000 | 
                          ------
    1276 |     0.2049545021    0.9999719603 | 
    1277 |     0.2054369134    0.9999673466 | 
    1278 |     0.2054455093    0.9999672579 | 
    1279 |     0.2059992519    0.9999610018 | 
    1280 |     0.2064785916    0.9999546291 | 
                 - Gap at zero temperature -
    1281 |     0.2722157577    0.0000212834 | 
    1282 |     0.2722342107    0.0000211597 | 
    1283 |     0.2723925412    0.0000201278 | 
    1284 |     0.2724062267    0.0000200410 | 
    1285 |     0.2724443325    0.0000198013 | 
                          ------
    2560 |     1.0811090583    0.0000000000 | 

                       |  Abs_value |  Threshold | Converged
     Delta_Free_energy |   2.75E-03 |   1.00E-06 |        No
     Delta_Energy      |   2.75E-03 |   1.00E-04 |        No
     Delta_Entropy     |   3.43E-07 |   1.00E-04 |       Yes
     Commutator        |   2.40E-05 |   1.00E-05 |        No
     Delta_Fermi_level |   9.66E-04 |   1.00E-03 |       Yes

  Line search of the free energy minimum:
  Step_type        Step             Free_energy   Predicted_free_energy
.   Initial    0.000000    -3619.34262278741335
.    Trial1    0.456892    -3619.34303641445013
.    Trial2    0.664341    -3619.34248492324150
. Quadratic    0.312828    -3619.34314784142043    -3619.34314774817221

--------------------------------------------------------------------------------
  Iter                              Commutator    Free_energy(A=E-TS)     DeltaA
#    2                          0.000015784700   -3619.34314784142043  -5.25E-04

Step                       =       0.312827700421
Energy                     =   -3619.343112283496
Entropy (-TS)              =      -0.000035557669
Free energy (A=E-TS)       =   -3619.343147841420
Est. 0K Energy 0.5*(E+A)   =   -3619.343130062458
Residual Non-orthogonality =       0.000000000000
Residual N_electrons       =      -0.000000000255

Spin          Integrated_Ne            Fermi_level     Delta_Fermi_level
   1      2560.000000001071         0.238443267213              2.95E-04

                           Spin 1          
     Orb      H-eigenvalues     Occupancies
       1 |    -0.4881948214    1.0000000000 | 
                          ------
    1276 |     0.2052286796    0.9999721413 | 
    1277 |     0.2057454447    0.9999672035 | 
    1278 |     0.2057549978    0.9999671044 | 
    1279 |     0.2062654986    0.9999613504 | 
    1280 |     0.2067799578    0.9999545332 | 
                 - Gap at zero temperature -
    1281 |     0.2725174653    0.0000212362 | 
    1282 |     0.2725367625    0.0000211072 | 
    1283 |     0.2726951529    0.0000200775 | 
    1284 |     0.2727169942    0.0000199395 | 
    1285 |     0.2727599838    0.0000196707 | 
                          ------
    2560 |     1.0819938966    0.0000000000 | 

                       |  Abs_value |  Threshold | Converged
     Delta_Free_energy |   5.25E-04 |   1.00E-06 |        No
     Delta_Energy      |   5.25E-04 |   1.00E-04 |        No
     Delta_Entropy     |   2.74E-08 |   1.00E-04 |       Yes
     Commutator        |   1.58E-05 |   1.00E-05 |        No
     Delta_Fermi_level |   2.95E-04 |   1.00E-03 |       Yes

  Line search of the free energy minimum:
  Step_type        Step             Free_energy   Predicted_free_energy
.   Initial    0.000000    -3619.34314784142043
.    Trial1    0.312828    -3619.34334618518506
.    Trial2    0.575304    -3619.34307020312281
. Quadratic    0.264621    -3619.34335299588201    -3619.34335299364238

--------------------------------------------------------------------------------
  Iter                              Commutator    Free_energy(A=E-TS)     DeltaA
#    3                          0.000010851076   -3619.34335299588201  -2.05E-04

Step                       =       0.264620704164
Energy                     =   -3619.343317434576
Entropy (-TS)              =      -0.000035561354
Free energy (A=E-TS)       =   -3619.343352995882
Est. 0K Energy 0.5*(E+A)   =   -3619.343335215229
Residual Non-orthogonality =       0.000000000000
Residual N_electrons       =       0.000000000049

Spin          Integrated_Ne            Fermi_level     Delta_Fermi_level
   1      2559.999999999796         0.238617908997              1.75E-04

                           Spin 1          
     Orb      H-eigenvalues     Occupancies
       1 |    -0.4879497170    1.0000000000 | 
                          ------
    1276 |     0.2054022977    0.9999721503 | 
    1277 |     0.2059225430    0.9999671781 | 
    1278 |     0.2059322388    0.9999670774 | 
    1279 |     0.2064376863    0.9999613804 | 
    1280 |     0.2069557662    0.9999545165 | 
                 - Gap at zero temperature -
    1281 |     0.2726918643    0.0000212378 | 
    1282 |     0.2727112439    0.0000211083 | 
    1283 |     0.2728697317    0.0000200779 | 
    1284 |     0.2728915413    0.0000199401 | 
    1285 |     0.2729350557    0.0000196680 | 
                          ------
    2560 |     1.0825143012    0.0000000000 | 

                       |  Abs_value |  Threshold | Converged
     Delta_Free_energy |   2.05E-04 |   1.00E-06 |        No
     Delta_Energy      |   2.05E-04 |   1.00E-04 |        No
     Delta_Entropy     |   3.69E-09 |   1.00E-04 |       Yes
     Commutator        |   1.09E-05 |   1.00E-05 |        No
     Delta_Fermi_level |   1.75E-04 |   1.00E-03 |       Yes

  Line search of the free energy minimum:
  Step_type        Step             Free_energy   Predicted_free_energy
.   Initial    0.000000    -3619.34335299588201
.    Trial1    0.264621    -3619.34344971635255
.    Trial2    0.545511    -3619.34337222099339
. Quadratic    0.287742    -3619.34345034528133    -3619.34345034492526

--------------------------------------------------------------------------------
  Iter                              Commutator    Free_energy(A=E-TS)     DeltaA
#    4                          0.000008008985   -3619.34345034528133  -9.73E-05

Step                       =       0.287742173226
Energy                     =   -3619.343414775436
Entropy (-TS)              =      -0.000035569580
Free energy (A=E-TS)       =   -3619.343450345281
[...]
 C   160 -- C   385       -0.10      5.37000
 C   159 -- C   384       -0.10      5.37000
 C   158 -- C   383       -0.10      5.37000
 C   157 -- C   382       -0.10      5.37000
 C   156 -- C   381       -0.10      5.37000
 C   155 -- C   355       -0.10      5.37000
 C   154 -- C   354       -0.10      5.37000
 C   153 -- C   353       -0.10      5.37000
 C   152 -- C   352       -0.10      5.37000
 C   151 -- C   351       -0.10      5.37000
 C   140 -- C   335       -0.10      5.37000
 C   139 -- C   334       -0.10      5.37000
 C   138 -- C   333       -0.10      5.37000
 C   137 -- C   332       -0.10      5.37000
 C   136 -- C   331       -0.10      5.37000
 C   115 -- C   325       -0.10      5.37000
 C   114 -- C   324       -0.10      5.37000
 C   113 -- C   323       -0.10      5.37000
 C   112 -- C   322       -0.10      5.37000
 C   111 -- C   321       -0.10      5.37000
 C   219 -- C   569       -0.10      5.37202
 C   218 -- C   568       -0.10      5.37202
 C   217 -- C   567       -0.10      5.37202
 C   216 -- C   566       -0.10      5.37202
 C   250 -- C   540       -0.10      5.37202
 C   249 -- C   539       -0.10      5.37202
 C   248 -- C   538       -0.10      5.37202
 C   247 -- C   537       -0.10      5.37202
 C   246 -- C   536       -0.10      5.37202
 C   220 -- C   570       -0.10      5.37202
 C   285 -- C   580       -0.10      5.37202
 C   284 -- C   579       -0.10      5.37202
 C   283 -- C   578       -0.10      5.37202
 C   282 -- C   577       -0.10      5.37202
 C   281 -- C   576       -0.10      5.37202
 C   260 -- C   605       -0.10      5.37202
 C   259 -- C   604       -0.10      5.37202
 C   258 -- C   603       -0.10      5.37202
 C   257 -- C   602       -0.10      5.37202
 C   256 -- C   601       -0.10      5.37202
 C   220 -- C   515       -0.10      5.37202
 C   219 -- C   514       -0.10      5.37202
 C   218 -- C   513       -0.10      5.37202
 C   217 -- C   512       -0.10      5.37202
 C   216 -- C   511       -0.10      5.37202
 C   195 -- C   540       -0.10      5.37202
 C   195 -- C   500       -0.10      5.37202
 C   194 -- C   539       -0.10      5.37202
 C   194 -- C   499       -0.10      5.37202
 C   193 -- C   538       -0.10      5.37202
 C   193 -- C   498       -0.10      5.37202
 C   192 -- C   537       -0.10      5.37202
 C   192 -- C   497       -0.10      5.37202
 C   191 -- C   536       -0.10      5.37202
 C   191 -- C   496       -0.10      5.37202
 C   180 -- C   515       -0.10      5.37202
 C   179 -- C   514       -0.10      5.37202
 C   178 -- C   513       -0.10      5.37202
 C   177 -- C   512       -0.10      5.37202
 C   176 -- C   511       -0.10      5.37202
 C    11 -- C   331       -0.10      5.37202
 C   205 -- C   550       -0.10      5.37202
 C   204 -- C   549       -0.10      5.37202
 C   203 -- C   548       -0.10      5.37202
 C   202 -- C   547       -0.10      5.37202
 C   201 -- C   546       -0.10      5.37202
 C    95 -- C   425       -0.10      5.37202
 C    95 -- C   365       -0.10      5.37202
 C    94 -- C   424       -0.10      5.37202
 C    94 -- C   364       -0.10      5.37202
 C    93 -- C   423       -0.10      5.37202
 C    93 -- C   363       -0.10      5.37202
 C    92 -- C   422       -0.10      5.37202
 C    92 -- C   362       -0.10      5.37202
 C    91 -- C   421       -0.10      5.37202
 C    91 -- C   361       -0.10      5.37202
 C    40 -- C   365       -0.10      5.37202
 C    39 -- C   364       -0.10      5.37202
 C    38 -- C   363       -0.10      5.37202
 C    37 -- C   362       -0.10      5.37202
 C    36 -- C   361       -0.10      5.37202
 C    15 -- C   335       -0.10      5.37202
 C    65 -- C   395       -0.10      5.37202
 C    65 -- C   345       -0.10      5.37202
 C    64 -- C   394       -0.10      5.37202
 C    64 -- C   344       -0.10      5.37202
 C    63 -- C   393       -0.10      5.37202
 C    30 -- C   355       -0.10      5.37202
 C    63 -- C   343       -0.10      5.37202
 C    62 -- C   392       -0.10      5.37202
 C    30 -- C   325       -0.10      5.37202
 C    14 -- C   334       -0.10      5.37202
 C    62 -- C   342       -0.10      5.37202
 C    61 -- C   391       -0.10      5.37202
 C    29 -- C   354       -0.10      5.37202
 C    61 -- C   341       -0.10      5.37202
 C    29 -- C   324       -0.10      5.37202
 C   260 -- C   550       -0.10      5.37202
 C   259 -- C   549       -0.10      5.37202
 C    28 -- C   353       -0.10      5.37202
 C   258 -- C   548       -0.10      5.37202
 C   257 -- C   547       -0.10      5.37202
 C   256 -- C   546       -0.10      5.37202
 C    28 -- C   323       -0.10      5.37202
 C    27 -- C   352       -0.10      5.37202
 C    13 -- C   333       -0.10      5.37202
 C    27 -- C   322       -0.10      5.37202
 C   120 -- C   395       -0.10      5.37202
 C    26 -- C   351       -0.10      5.37202
 C   119 -- C   394       -0.10      5.37202
 C   118 -- C   393       -0.10      5.37202
 C    55 -- C   335       -0.10      5.37202
 C   117 -- C   392       -0.10      5.37202
 C    26 -- C   321       -0.10      5.37202
 C   116 -- C   391       -0.10      5.37202
 C    54 -- C   334       -0.10      5.37202
 C    12 -- C   332       -0.10      5.37202
 C    53 -- C   333       -0.10      5.37202
 C   230 -- C   580       -0.10      5.37202
 C   230 -- C   525       -0.10      5.37202
 C   229 -- C   579       -0.10      5.37202
 C   229 -- C   524       -0.10      5.37202
 C   228 -- C   578       -0.10      5.37202
 C    52 -- C   332       -0.10      5.37202
 C   228 -- C   523       -0.10      5.37202
 C   227 -- C   577       -0.10      5.37202
 C   227 -- C   522       -0.10      5.37202
 C   226 -- C   576       -0.10      5.37202
 C   226 -- C   521       -0.10      5.37202
 C    51 -- C   331       -0.10      5.37202
 C    23 -- C   478       -0.10      5.37202
 C    49 -- C   469       -0.10      5.37202
 C    48 -- C   468       -0.10      5.37202
 C    47 -- C   467       -0.10      5.37202
 C    22 -- C   477       -0.10      5.37202
 C    46 -- C   466       -0.10      5.37202
 C    21 -- C   476       -0.10      5.37202
 C    85 -- C   355       -0.10      5.37202
 C    84 -- C   354       -0.10      5.37202
 C    83 -- C   353       -0.10      5.37202
 C    82 -- C   352       -0.10      5.37202
 C    81 -- C   351       -0.10      5.37202
 C    55 -- C   385       -0.10      5.37202
 C    54 -- C   384       -0.10      5.37202
 C    25 -- C   480       -0.10      5.37202
 C    53 -- C   383       -0.10      5.37202
 C    52 -- C   382       -0.10      5.37202
 C    51 -- C   381       -0.10      5.37202
 C    24 -- C   479       -0.10      5.37202
 C    50 -- C   470       -0.10      5.37202
 C    24 -- C   449       -0.10      5.37202
 C     6 -- C   416       -0.10      5.37202
 C    23 -- C   448       -0.10      5.37202
 C    22 -- C   447       -0.10      5.37202
 C    10 -- C   470       -0.10      5.37202
 C     5 -- C   450       -0.10      5.37202
 C    21 -- C   446       -0.10      5.37202
 C    10 -- C   420       -0.10      5.37202
 C     9 -- C   469       -0.10      5.37202
 C     9 -- C   419       -0.10      5.37202
 C     8 -- C   468       -0.10      5.37202
 C     4 -- C   449       -0.10      5.37202
 C   150 -- C   440       -0.10      5.37202
 C   149 -- C   439       -0.10      5.37202
 C   148 -- C   438       -0.10      5.37202
 C   147 -- C   437       -0.10      5.37202
 C     8 -- C   418       -0.10      5.37202
 C   146 -- C   436       -0.10      5.37202
 C     2 -- C   447       -0.10      5.37202
 C   135 -- C   460       -0.10      5.37202
 C     7 -- C   467       -0.10      5.37202
 C   134 -- C   459       -0.10      5.37202
 C   133 -- C   458       -0.10      5.37202
 C   132 -- C   457       -0.10      5.37202
 C   131 -- C   456       -0.10      5.37202
 C     7 -- C   417       -0.10      5.37202
 C     1 -- C   446       -0.10      5.37202
 C     6 -- C   466       -0.10      5.37202
 C    25 -- C   450       -0.10      5.37202
 C     3 -- C   448       -0.10      5.37202
 C   106 -- C   436       -0.10      5.37202
 C   106 -- C   376       -0.10      5.37202
 C    80 -- C   410       -0.10      5.37202
 C    79 -- C   409       -0.10      5.37202
 C    78 -- C   408       -0.10      5.37202
 C    77 -- C   407       -0.10      5.37202
 C    76 -- C   406       -0.10      5.37202
 C   135 -- C   410       -0.10      5.37202
 C   134 -- C   409       -0.10      5.37202
 C   133 -- C   408       -0.10      5.37202
 C   132 -- C   407       -0.10      5.37202
 C   131 -- C   406       -0.10      5.37202
 C   110 -- C   440       -0.10      5.37202
 C   110 -- C   380       -0.10      5.37202
 C   109 -- C   439       -0.10      5.37202
 C   109 -- C   379       -0.10      5.37202
 C   108 -- C   438       -0.10      5.37202
 C   108 -- C   378       -0.10      5.37202
 C   107 -- C   437       -0.10      5.37202
 C   107 -- C   377       -0.10      5.37202
 C   215 -- C   635       -0.10      5.38000
 C   214 -- C   634       -0.10      5.38000
 C   213 -- C   633       -0.10      5.38000
 C   212 -- C   632       -0.10      5.38000
 C   211 -- C   631       -0.10      5.38000
 C   190 -- C   620       -0.10      5.38000
 C   189 -- C   619       -0.10      5.38000
 C   188 -- C   618       -0.10      5.38000
 C   187 -- C   617       -0.10      5.38000
 C   186 -- C   616       -0.10      5.38000
 C   175 -- C   595       -0.10      5.38000
 C   174 -- C   594       -0.10      5.38000
 C   173 -- C   593       -0.10      5.38000
 C   172 -- C   592       -0.10      5.38000
 C   171 -- C   591       -0.10      5.38000
 C   245 -- C   640       -0.10      5.38000
 C   244 -- C   639       -0.10      5.38000
 C   243 -- C   638       -0.10      5.38000
 C   242 -- C   637       -0.10      5.38000
 C   241 -- C   636       -0.10      5.38000
==================================================


=================== Orbital energy and occupancy information ===================

      Total number of orbitals:    2560
        Occupancy sum (kernel):    1280.000000000
   Occupancy sum (eigenvalues):    1280.000000000
                 HOMO-LUMO gap:       0.000014924 Eh
                 Mid-gap level:       0.308351644 Eh

                        Orbital | Energy (Eh) | Occupancy
                            1    -0.447841885   1.0000000
                        .......   ...........   .........
                         1272     0.240544946   0.9999873
                         1273     0.240954586   0.9999856
                         1274     0.241017863   0.9999853
                         1275     0.244837958   0.9999509
                         1276     0.244839758   0.9999509
                         1277     0.245283992   0.9999435
                         1278     0.245285684   0.9999434
                         1279     0.245424856   0.9999409
                         1280     0.245853483   0.9999323
                         1281     0.308344182   0.0000397
                        ....... -- gap at 0K -- .........
                         1282     0.308359106   0.0000395
                         1283     0.308590133   0.0000367
                         1284     0.308604759   0.0000365
                         1285     0.309490623   0.0000277
                         1286     0.309493847   0.0000277
                         1287     0.309754132   0.0000255
                         1288     0.309757327   0.0000255
                         1289     0.310228925   0.0000220
                         1290     0.310342934   0.0000210
                         1291     0.310384719   0.0000207
                        .......   ...........   .........
                         2560     1.176199351   0.0000000

================================================================================

===================== Writing canonical molecular orbitals =====================
| Orbital  Energy (eV)  Norm     |
| HOMO      8.39047212  1.000000 | Writing "3.219844_GO_manual_4x64graphite_HOMO.cube" ... done
Writing "3.219844_GO_manual_4x64graphite_HOMO.dx" ... done
| LUMO      8.39087824  1.000000 | Writing "3.219844_GO_manual_4x64graphite_LUMO.cube" ... done
Writing "3.219844_GO_manual_4x64graphite_LUMO.dx" ... done
================================================================================
 
===================== Density of States (DOS) calculation ======================
Writing "3.219844_GO_manual_4x64graphite_DOS.txt" ...  done
================================================================================
 
Writing bands to file "3.219844_GO_manual_4x64graphite.val_bands" ... done
 
================ Projected Density of States (pDOS) calculation ================
 
Constructing AM resolved functions  ...... done
Writing NGWF plot files in formats: CUBE DX ...  done
 
Performing overlap integrals ...  done
 
Computing pDOS weights ...  done
 
All bands spilling parameter =   3.95 %
Occupancy-weighted spilling parameter =   0.81 %
 
 => Outputting data for OptaDOS <=
 
Writing pDOS weights to file "3.219844_GO_manual_4x64graphite.val_pdos_bin" ... done
 
Writing band gradients to file "3.219844_GO_manual_4x64graphite.val_dome_bin" ... done
 
Writing Castep output cell file to "3.219844_GO_manual_4x64graphite-out.cell" ... done
 
 => Computing Gaussian smeared pDOS <= 
Writing "3.219844_GO_manual_4x64graphite_PDOS.txt" ...  done
 
 => Computing Occupancy-weighted Gaussian smeared pDOS <= 
Writing "3.219844_GO_manual_4x64graphite_occ_PDOS.txt" ...  done
  => Band centres: 
 S band centre of group 1:  -15.457975 eV
 P band centre of group 1:   -8.400700 eV
  Band centres done. <=
  => Integrated number of electrons in each AM band: 
 S num electrons of group 1:  571.694547
 P num electrons of group 1: 1967.627575
  Integrated number of electrons done. <=
================================================================================

------------------------------ TIMING INFORMATION ------------------------------
AVERAGE TIME:    4295.754s on     40 node(s)                                    
TOTAL TIME:      4295.754s on     40 node(s)                                    
================= AVERAGE TIMINGS FROM ALL NODES (CUMULATIVE) ==================
|| TAG                                    #calls    cpu time   %total  Gflops ||
|| work_imbalance                       :     1        0.00s   0.000%  ------ ||
|| paw_tcore_hartree_on_grid            :     1        0.00s   0.000%  ------ ||
|| paw_tcore_density                    :     1        0.01s   0.000%  ------ ||
|| paw_sphere_density_on_grid           :     1        0.01s   0.000%  ------ ||
|| sparse_set_to_garbage                :   183        0.03s   0.001%  ------ ||
|| paw_dij_hartree                      :   383        0.05s   0.001%  ------ ||
|| pseudo_make_structure_factor         :     1        0.05s   0.001%  ------ ||
|| basis_extract_function_from_box      :  2048        0.09s   0.002%  ------ ||
|| paw_species_calc_proj_prec_mat       :     1        0.12s   0.003%  ------ ||
|| paw_dataset_init                     :     1        0.15s   0.003%  ------ ||
|| density_init_guess_real              :     1        0.18s   0.004%  ------ ||
|| ngwfs_initialise_from_radial         :     2        0.66s   0.015%  ------ ||
|| restart_kernel_write                 :    17        0.73s   0.017%  ------ ||
|| dense_normal_eigensolve              :     1        0.92s   0.021%  ------ ||
|| sparse_init                          :     1        0.93s   0.022%  ------ ||
|| hartree_on_grid                      :   287        1.09s   0.025%  ------ ||
|| ewald_calculate_energy               :     1        2.31s   0.054%  ------ ||
|| projectors_init_fftbox_recip         :   161        3.15s   0.073%  ------ ||
|| fourier_apply_box_pair               :  3040        5.03s   0.117% 560.512 ||
|| basis_copy_function_to_box           : 27264        5.88s   0.137%  ------ ||
|| augmentation_screen_dij              :   294        6.35s   0.148%  ------ ||
|| sw_init                              :     1        6.73s   0.157%  ------ ||
|| sparse_embed_hotelling_invert_embed  :    31        9.76s   0.227%  ------ ||
|| ngwf_gradient_coeffs                 :    16       12.90s   0.300%  ------ ||
|| cell_grid_extract_box_real           : 11564       13.38s   0.311%  ------ ||
|| fourier_apply_cell_backward          :  8868       14.08s   0.328%  70.757 ||
|| fourier_apply_cell_forward           :  8295       15.55s   0.362%  59.968 ||
|| sparse_trace                         :  3472       19.72s   0.459%  ------ ||
|| cell_grid_deposit_box_real           : 36912       20.98s   0.488%  ------ ||
|| paw_dij_xc                           :   383       30.12s   0.701%  ------ ||
|| density_fftbox_deposit_to_cell       : 18368       41.57s   0.968%  ------ ||
|| aug_nonlocal_mat                     :   367       43.45s   1.012%  ------ ||
|| eigenstates_pdos                     :     1       47.02s   1.095%  ------ ||
|| eigenstates_calculate                :     1       50.76s   1.182%  ------ ||
|| augmentation_density_on_grid         :   287       53.19s   1.238%  ------ ||
|| function_ops_brappd_ketppd           :    64       63.47s   1.478%  ------ ||
|| hamiltonian_energy_components        :     4       66.32s   1.544%  ------ ||
|| nlxc_vdw_energy                      :   572       72.20s   1.681%  ------ ||
|| xc_energy_potential                  :   286       76.74s   1.786%  ------ ||
|| projectors_func_ovlp_box             :    32       77.36s   1.801%  ------ ||
|| properties_calculate                 :     1       90.38s   2.104%  ------ ||
|| dense_eigensolve                     :   251      112.75s   2.625%  ------ ||
|| integrals_kinetic                    :    31      115.07s   2.679%  ------ ||
|| restart_ngwfs_tightbox_output        :    15      121.42s   2.827%  ------ ||
|| potential_apply_to_ngwf_batch        :   364      138.52s   3.225%  ------ ||
|| sparse_product                       :  3499      153.08s   3.563%  ------ ||
|| basis_dot_function_with_box          : 9.120M     247.90s   5.771%  ------ ||
|| edft_diag_ngwf_ham                   :   250      265.72s   6.186%  ------ ||
|| fourier_apply_box                    : 85776      266.42s   6.202% 979.963 ||
|| projectors_gradient_batch            :    64      300.22s   6.989%  ------ ||
|| integrals_locpot_mat_els_batch       :   364      343.44s   7.995%  ------ ||
|| density_fftbox_interpolate_multiply  : 18368      356.20s   8.292%  ------ ||
|| density_batch_interp_deposit         :  1148      437.76s  10.190%  ------ ||
|| projectors_grad_precond_batch        :    64      442.15s  10.293%  ------ ||
|| integrals_locpot_dbl_grid            :    91      483.81s  11.262%  ------ ||
|| edft_apply_smearing_operator         :   250      530.28s  12.344%  ------ ||
|| basis_add_function_to_box            : 25.52M     665.67s  15.496%  ------ ||
|| ngwf_gradient_build_batch            :    64      790.48s  18.401%  ------ ||
|| density_batch_row_sums               :  1148      967.83s  22.530%  ------ ||
|| ngwf_gradient_batch                  :    64     1052.56s  24.502%  ------ ||
|| ngwf_gradient_lnv                    :    16     1091.79s  25.416%  ------ ||
|| density_on_dbl_grid                  :   287     1420.87s  33.076%  ------ ||
|| hamiltonian_lhxc_calculate           :   281     1528.49s  35.581%  ------ ||
|| edft_calculate                       :    16     2525.03s  58.780%  ------ ||
|| ngwf_cg_optimise                     :     1     4185.33s  97.430%  ------ ||
|| total_time                           :     1     4295.75s 100.000%  ------ ||
================================================================================
Overhead of generating timer report: 
- 0 ms averaging over threads,
- 5 ms ensuring consistency across MPI ranks,
- 0 ms printing in order.

Job completed: 21-02-2020 16:37 (-0000)

