 +---------------------------------------------------------------+
 |                                                               |
 |        ####### #     # ####### ####### ####### ######         |
 |        #     # ##    # #          #    #       #     #        |
 |        #     # # #   # #          #    #       #     #        |
 |        #     # #  #  # #####      #    #####   ######         |
 |        #     # #   # # #          #    #       #              |
 |        #     # #    ## #          #    #       #              |
 |        ####### #     # #######    #    ####### #              |
 |                                                               |
 |        Linear-Scaling Ab Initio Total Energy Program          |
 |                                                               |
 |          Release for academic collaborators of ODG            |
 |                                             Version 5.3.2.12  |
 |                                                               |
 +---------------------------------------------------------------+
 |                                                               |
 |  Authors:                                                     |
 |  Jacek Dziedzic, Peter D. Haynes, Nicholas D. M. Hine,        |
 |  Arash. A. Mostofi, Mike C. Payne and Chris-Kriton Skylaris   |
 |                                                               |
 |  Contributors:                                                |
 |  J. Aarons, L. Andrinopoulos, P. W. Avraam, R. A. Bell,       |
 |  A. Bhandari, G. A. Bramley, R. J. Charlton, S. J. Clark,     |
 |  R. J. Clements, G. C. Constantinescu, F. Corsetti,           |
 |  N. Corsini, O. Dieguez, S. M. M. Dubois, K. K. B. Duff,      |
 |  J. M. Escartin, A. Greco, H. Helal, Q. O. Hill, L. P. Lee,   |
 |  J.-H. Li, E. B. Linscott, G. Moynihan, D. D. O`Regan,        |
 |  O. K. Okan, M. J. S. Phipps, C. J. Pickard,                  |
 |  J. C. A. Prentice, M. I. J. Probert, L. E. Ratcliff,         |
 |  M. Robinson, A. Ruiz Serrano, J. S. Spencer, E. W. Tait,     |
 |  G. Teobaldi, D. Turban, V. Vitale, K. A. Wilkinson,          |
 |  C. Weber, J. C. Womack, N. Yeung and T. J. Zuehlsdorff       |
 |                                                               |
 |                                   Copyright (c) 2004-2020     |
 |                                                               |
 |  Please cite:                                                 |
 |  "Introducing ONETEP: Linear-scaling density functional       |
 |   simulations on parallel computers".                         |
 |   C.-K. Skylaris, P. D. Haynes, A. A. Mostofi, M. C. Payne.   |
 |   J. Chem. Phys. 122 084119 (2005).                           |
 |                                                               |
 |          in all publications arising from your use of ONETEP. |
 |                                                               |
 +---------------------------------------------------------------+
 |                                                               |
 |   ONETEP is based on developments described in the following  |
 |   publications:                                               |
 |                                                               |
 |  "Nonorthogonal generalized Wannier function pseudopotential  |
 |   plane-wave method".                                         |
 |   C.-K. Skylaris, A. A. Mostofi, P. D. Haynes, O. Dieguez,    |
 |   M. C. Payne.                                                |
 |   Phys. Rev. B 66 035119 (2002).                              |
 |                                                               |
 |  "Preconditioned iterative minimization for linear-scaling    |
 |   electronic structure calculations".                         |
 |   A. A. Mostofi, P. D. Haynes, C.-K. Skylaris, M. C. Payne.   |
 |   J. Chem. Phys. 119(17), pp.8842-8848 (2003).                |
 |                                                               |
 |  "Total-energy calculations on a real space grid with         |
 |   localized functions and a plane-wave basis".                |
 |   A. A. Mostofi, C.-K. Skylaris, P. D. Haynes, M. C. Payne.   |
 |   Comput. Phys. Commun. 147, pp.788-802 (2002).               |
 |                                                               |
 |  "Accurate kinetic energy evaluation in electronic structure  |
 |   calculations with localized functions on real space grids"  |
 |   C.-K. Skylaris, A. A. Mostofi, P. D. Haynes, C. J. Pickard, |
 |   M. C. Payne.                                                |
 |   Comput. Phys. Commun. 140, pp.315-322 (2001).               |
 |                                                               |
 |  "Accurate ionic forces and geometry optimization in linear-  |
 |   scaling density-functional theory with local orbitals"      |
 |   N. D. M. Hine, M. Robinson, P. D. Haynes, C.-K. Skylaris,   |
 |   M. C. Payne, and A. A. Mostofi.                             |
 |   Phys. Rev. B 83 195102 (2011).                              |
 |                                                               |
 +---------------------------------------------------------------+

Job started: 21-02-2020 16:18 (-0000)
 
Reading parameters from file "3.2466752_GO_manual_4x64graphite.dat" ...

WARNING: "cutoff_energy" not specified, but "psinc_spacing" specified.
         Using the latter to set the KE cutoff energy to  732.32021eV,
         thus *overriding* the default.

... done

If your calculation crashes here, before "Checking processes and threads..."
is displayed, then your stack size is insufficient.
If so, use "ulimit -s unlimited" at runtime.
You can disable this check with "check_stack_size F".

Checking processes and threads...
   Determining the default number of threads...
      No default threads set at compilation time: defaulting to 1.
      OpenMP library call suggests 4 threads.
      Hybrid MPI-OpenMP compilation detected.
      Number of MPI processes > 1.
      OMP_NUM_THREADS environment variable present and
      its value matches the one obtained from the OpenMP library call.
      Using this value as default.
      Default threads: 4
      Default applies to threads_max and threads_num_fftboxes.
      Settings in the input file override this default.
   ... done

   Running with 40 MPI processes.
   There are 10 MPI processes running on the same node as the root process.
   Each MPI process is using: 
               1 threads for simulation cell FFTs.
               1 threads for parallel FFT box operations.
               4 threads for loops over batched FFT box operations.
               4 threads in other parallel regions.
... done

Basic input checks...
Resetting ngwf_cg_rotate to TRUE for EDFT calculations
... done

Reading geometry and species blocks from file "3.2466752_GO_manual_4x64graphite.dat" ...
    
  PSINC grid spacing along a1 set to   0.511215680000a0 from input file.
  PSINC grid spacing along a2 set to   0.531284090000a0 from input file.
  PSINC grid spacing along a3 set to   0.507052850000a0 from input file.
  Number of PPD points along a3 set to 1.  This is 
  the default value, it may have been provided also in the input file.
... done
 Writing xyz coordinates to file "3.2466752_GO_manual_4x64graphite.xyz" ... done


--------------------------------------------------------------------------------
---------------------------------- INPUT FILE ----------------------------------
--------------------------------------------------------------------------------

task : singlepoint                                                              
do_properties : true                                                            
dx_format T                                                                     
edft T                                                                          
output_detail VERBOSE                                                           
write_xyz T                                                                     
xc_functional AVV10S                                                            
PSINC_SPACING 0.51121568 0.53128409 0.50705285                                  
paw T                                                                           
pdos_max_l = 2                                                                  
dos_smear  0.1 eV                                                               
popn_calculate T                                                                
PDOS_PSEUDOATOMIC T                                                             
PDOS_REDUCE_SWS F                                                               
PDOS_CONSTRUCT_BASIS F                                                          
PDOS_LOWDIN T                                                                   
PDOS_ORTH_ATOM_BLOCKS F                                                         
PDOS_LCAO_OPTIMIZE F                                                            
pdos_optados_output T                                                           
homo_plot 0                                                                     
lumo_plot 0                                                                     
homo_dens_plot -1                                                               
lumo_dens_plot -1                                                               
%BLOCK SPECIES                                                                  
C C 6 4 9.0                                                                     
%ENDBLOCK SPECIES                                                               
%BLOCK SPECIES_POT                                                              
C "~/pp/paw/c_pbe_abinit.paw"                                                   
%ENDBLOCK SPECIES_POT                                                           
%BLOCK SPECIES_ATOMIC_SET                                                       
C "SOLVE conf=2s2 2p2"                                                          
%ENDBLOCK SPECIES_ATOMIC_SET                                                    
%BLOCK LATTICE_CART                                                             
32.21  0.00  0.00                                                               
0.00 18.59  0.00                                                                
0.00  0.00 61.35                                                                
%ENDBLOCK LATTICE_CART                                                          
%BLOCK POSITIONS_ABS                                                            
C  0.00  0.00  3.07                                                             
C  0.00  0.00 15.34                                                             
C  0.00  0.00 27.61                                                             
C  0.00  0.00 39.88                                                             
C  0.00  0.00 52.15                                                             
C  0.00  4.65  3.07                                                             
C  0.00  4.65 15.34                                                             
C  0.00  4.65 27.61                                                             
C  0.00  4.65 39.88                                                             
C  0.00  4.65 52.15                                                             
C  4.03  2.32  3.07                                                             
C  4.03  2.32 15.34                                                             
C  4.03  2.32 27.61                                                             
C  4.03  2.32 39.88                                                             
C  4.03  2.32 52.15                                                             
C  8.05  0.00  3.07                                                             
C  8.05  0.00 15.34                                                             
C  8.05  0.00 27.61                                                             
C  8.05  0.00 39.88                                                             
C  8.05  0.00 52.15                                                             
C  0.00  9.30  3.07                                                             
C  0.00  9.30 15.34                                                             
C  0.00  9.30 27.61                                                             
C  0.00  9.30 39.88                                                             
C  0.00  9.30 52.15                                                             
C  4.03  6.97  3.07                                                             
C  4.03  6.97 15.34                                                             
C  4.03  6.97 27.61                                                             
C  4.03  6.97 39.88                                                             
C  4.03  6.97 52.15                                                             
C  8.05  4.65  3.07                                                             
C  8.05  4.65 15.34                                                             
C  8.05  4.65 27.61                                                             
C  8.05  4.65 39.88                                                             
C  8.05  4.65 52.15                                                             
C 12.08  2.32  3.07                                                             
C 12.08  2.32 15.34                                                             
C 12.08  2.32 27.61                                                             
C 12.08  2.32 39.88                                                             
C 12.08  2.32 52.15                                                             
C 16.10  0.00  3.07                                                             
C 16.10  0.00 15.34                                                             
C 16.10  0.00 27.61                                                             
C 16.10  0.00 39.88                                                             
C 16.10  0.00 52.15                                                             
C  0.00 13.95  3.07                                                             
C  0.00 13.95 15.34                                                             
C  0.00 13.95 27.61                                                             
C  0.00 13.95 39.88                                                             
C  0.00 13.95 52.15                                                             
C  4.03 11.62  3.07                                                             
C  4.03 11.62 15.34                                                             
C  4.03 11.62 27.61                                                             
C  4.03 11.62 39.88                                                             
C  4.03 11.62 52.15                                                             
C  8.05  9.30  3.07                                                             
C  8.05  9.30 15.34                                                             
C  8.05  9.30 27.61                                                             
C  8.05  9.30 39.88                                                             
C  8.05  9.30 52.15                                                             
C 12.08  6.97  3.07                                                             
C 12.08  6.97 15.34                                                             
C 12.08  6.97 27.61                                                             
C 12.08  6.97 39.88                                                             
C 12.08  6.97 52.15                                                             
C 16.10  4.65  3.07                                                             
C 16.10  4.65 15.34                                                             
C 16.10  4.65 27.61                                                             
C 16.10  4.65 39.88                                                             
C 16.10  4.65 52.15                                                             
C 20.13  2.32  3.07                                                             
C 20.13  2.32 15.34                                                             
C 20.13  2.32 27.61                                                             
C 20.13  2.32 39.88                                                             
C 20.13  2.32 52.15                                                             
C 24.16  0.00  3.07                                                             
C 24.16  0.00 15.34                                                             
C 24.16  0.00 27.61                                                             
C 24.16  0.00 39.88                                                             
C 24.16  0.00 52.15                                                             
C  4.03 16.27  3.07                                                             
C  4.03 16.27 15.34                                                             
C  4.03 16.27 27.61                                                             
C  4.03 16.27 39.88                                                             
C  4.03 16.27 52.15                                                             
C  8.05 13.95  3.07                                                             
C  8.05 13.95 15.34                                                             
C  8.05 13.95 27.61                                                             
C  8.05 13.95 39.88                                                             
C  8.05 13.95 52.15                                                             
C 12.08 11.62  3.07                                                             
C 12.08 11.62 15.34                                                             
C 12.08 11.62 27.61                                                             
C 12.08 11.62 39.88                                                             
C 12.08 11.62 52.15                                                             
C 16.10  9.30  3.07                                                             
C 16.10  9.30 15.34                                                             
C 16.10  9.30 27.61                                                             
C 16.10  9.30 39.88                                                             
C 16.10  9.30 52.15                                                             
C 20.13  6.97  3.07                                                             
C 20.13  6.97 15.34                                                             
C 20.13  6.97 27.61                                                             
C 20.13  6.97 39.88                                                             
C 20.13  6.97 52.15                                                             
C 24.16  4.65  3.07                                                             
C 24.16  4.65 15.34                                                             
C 24.16  4.65 27.61                                                             
C 24.16  4.65 39.88                                                             
C 24.16  4.65 52.15                                                             
C 28.18  2.32  3.07                                                             
C 28.18  2.32 15.34                                                             
C 28.18  2.32 27.61                                                             
C 28.18  2.32 39.88                                                             
C 28.18  2.32 52.15                                                             
C 12.08 16.27  3.07                                                             
C 12.08 16.27 15.34                                                             
C 12.08 16.27 27.61                                                             
C 12.08 16.27 39.88                                                             
C 12.08 16.27 52.15                                                             
C 16.10 13.95  3.07                                                             
C 16.10 13.95 15.34                                                             
C 16.10 13.95 27.61                                                             
C 16.10 13.95 39.88                                                             
C 16.10 13.95 52.15                                                             
C 20.13 11.62  3.07                                                             
C 20.13 11.62 15.34                                                             
C 20.13 11.62 27.61                                                             
C 20.13 11.62 39.88                                                             
C 20.13 11.62 52.15                                                             
C 24.16  9.30  3.07                                                             
C 24.16  9.30 15.34                                                             
C 24.16  9.30 27.61                                                             
C 24.16  9.30 39.88                                                             
C 24.16  9.30 52.15                                                             
C 28.18  6.97  3.07                                                             
C 28.18  6.97 15.34                                                             
C 28.18  6.97 27.61                                                             
C 28.18  6.97 39.88                                                             
C 28.18  6.97 52.15                                                             
C 20.13 16.27  3.07                                                             
C 20.13 16.27 15.34                                                             
C 20.13 16.27 27.61                                                             
C 20.13 16.27 39.88                                                             
C 20.13 16.27 52.15                                                             
C 24.16 13.95  3.07                                                             
C 24.16 13.95 15.34                                                             
C 24.16 13.95 27.61                                                             
C 24.16 13.95 39.88                                                             
C 24.16 13.95 52.15                                                             
C 28.18 11.62  3.07                                                             
C 28.18 11.62 15.34                                                             
C 28.18 11.62 27.61                                                             
C 28.18 11.62 39.88                                                             
C 28.18 11.62 52.15                                                             
C 28.18 16.27  3.07                                                             
C 28.18 16.27 15.34                                                             
C 28.18 16.27 27.61                                                             
C 28.18 16.27 39.88                                                             
C 28.18 16.27 52.15                                                             
C  0.00  0.00  9.20                                                             
C  0.00  0.00 21.47                                                             
C  0.00  0.00 33.74                                                             
C  0.00  0.00 46.02                                                             
C  0.00  0.00 58.29                                                             
C  0.00  4.65  9.20                                                             
C  0.00  4.65 21.47                                                             
C  0.00  4.65 33.74                                                             
C  0.00  4.65 46.02                                                             
C  0.00  4.65 58.29                                                             
C  4.03  2.32  9.20                                                             
C  4.03  2.32 21.47                                                             
C  4.03  2.32 33.74                                                             
C  4.03  2.32 46.02                                                             
C  4.03  2.32 58.29                                                             
C  8.05  0.00  9.20                                                             
C  8.05  0.00 21.47                                                             
C  8.05  0.00 33.74                                                             
C  8.05  0.00 46.02                                                             
C  8.05  0.00 58.29                                                             
C  0.00  9.30  9.20                                                             
C  0.00  9.30 21.47                                                             
C  0.00  9.30 33.74                                                             
C  0.00  9.30 46.02                                                             
C  0.00  9.30 58.29                                                             
C  4.03  6.97  9.20                                                             
C  4.03  6.97 21.47                                                             
C  4.03  6.97 33.74                                                             
C  4.03  6.97 46.02                                                             
C  4.03  6.97 58.29                                                             
C  8.05  4.65  9.20                                                             
C  8.05  4.65 21.47                                                             
C  8.05  4.65 33.74                                                             
C  8.05  4.65 46.02                                                             
C  8.05  4.65 58.29                                                             
C 12.08  2.32  9.20                                                             
C 12.08  2.32 21.47                                                             
C 12.08  2.32 33.74                                                             
C 12.08  2.32 46.02                                                             
C 12.08  2.32 58.29                                                             
C 16.10  0.00  9.20                                                             
C 16.10  0.00 21.47                                                             
C 16.10  0.00 33.74                                                             
C 16.10  0.00 46.02                                                             
C 16.10  0.00 58.29                                                             
C  0.00 13.95  9.20                                                             
C  0.00 13.95 21.47                                                             
C  0.00 13.95 33.74                                                             
C  0.00 13.95 46.02                                                             
C  0.00 13.95 58.29                                                             
C  4.03 11.62  9.20                                                             
C  4.03 11.62 21.47                                                             
C  4.03 11.62 33.74                                                             
C  4.03 11.62 46.02                                                             
C  4.03 11.62 58.29                                                             
C  8.05  9.30  9.20                                                             
C  8.05  9.30 21.47                                                             
C  8.05  9.30 33.74                                                             
C  8.05  9.30 46.02                                                             
C  8.05  9.30 58.29                                                             
C 12.08  6.97  9.20                                                             
C 12.08  6.97 21.47                                                             
C 12.08  6.97 33.74                                                             
C 12.08  6.97 46.02                                                             
C 12.08  6.97 58.29                                                             
C 16.10  4.65  9.20                                                             
C 16.10  4.65 21.47                                                             
C 16.10  4.65 33.74                                                             
C 16.10  4.65 46.02                                                             
C 16.10  4.65 58.29                                                             
C 20.13  2.32  9.20                                                             
C 20.13  2.32 21.47                                                             
C 20.13  2.32 33.74                                                             
C 20.13  2.32 46.02                                                             
C 20.13  2.32 58.29                                                             
C 24.16  0.00  9.20                                                             
C 24.16  0.00 21.47                                                             
C 24.16  0.00 33.74                                                             
C 24.16  0.00 46.02                                                             
C 24.16  0.00 58.29                                                             
C  4.03 16.27  9.20                                                             
C  4.03 16.27 21.47                                                             
C  4.03 16.27 33.74                                                             
C  4.03 16.27 46.02                                                             
C  4.03 16.27 58.29                                                             
C  8.05 13.95  9.20                                                             
C  8.05 13.95 21.47                                                             
C  8.05 13.95 33.74                                                             
C  8.05 13.95 46.02                                                             
C  8.05 13.95 58.29                                                             
C 12.08 11.62  9.20                                                             
C 12.08 11.62 21.47                                                             
C 12.08 11.62 33.74                                                             
C 12.08 11.62 46.02                                                             
C 12.08 11.62 58.29                                                             
C 16.10  9.30  9.20                                                             
C 16.10  9.30 21.47                                                             
C 16.10  9.30 33.74                                                             
C 16.10  9.30 46.02                                                             
C 16.10  9.30 58.29                                                             
C 20.13  6.97  9.20                                                             
C 20.13  6.97 21.47                                                             
C 20.13  6.97 33.74                                                             
C 20.13  6.97 46.02                                                             
C 20.13  6.97 58.29                                                             
C 24.16  4.65  9.20                                                             
C 24.16  4.65 21.47                                                             
C 24.16  4.65 33.74                                                             
C 24.16  4.65 46.02                                                             
C 24.16  4.65 58.29                                                             
C 28.18  2.32  9.20                                                             
C 28.18  2.32 21.47                                                             
C 28.18  2.32 33.74                                                             
C 28.18  2.32 46.02                                                             
C 28.18  2.32 58.29                                                             
C 12.08 16.27  9.20                                                             
C 12.08 16.27 21.47                                                             
C 12.08 16.27 33.74                                                             
C 12.08 16.27 46.02                                                             
C 12.08 16.27 58.29                                                             
C 16.10 13.95  9.20                                                             
C 16.10 13.95 21.47                                                             
C 16.10 13.95 33.74                                                             
C 16.10 13.95 46.02                                                             
C 16.10 13.95 58.29                                                             
C 20.13 11.62  9.20                                                             
C 20.13 11.62 21.47                                                             
C 20.13 11.62 33.74                                                             
C 20.13 11.62 46.02                                                             
C 20.13 11.62 58.29                                                             
C 24.16  9.30  9.20                                                             
C 24.16  9.30 21.47                                                             
C 24.16  9.30 33.74                                                             
C 24.16  9.30 46.02                                                             
C 24.16  9.30 58.29                                                             
C 28.18  6.97  9.20                                                             
C 28.18  6.97 21.47                                                             
C 28.18  6.97 33.74                                                             
C 28.18  6.97 46.02                                                             
C 28.18  6.97 58.29                                                             
C 20.13 16.27  9.20                                                             
C 20.13 16.27 21.47                                                             
C 20.13 16.27 33.74                                                             
C 20.13 16.27 46.02                                                             
C 20.13 16.27 58.29                                                             
C 24.16 13.95  9.20                                                             
C 24.16 13.95 21.47                                                             
C 24.16 13.95 33.74                                                             
C 24.16 13.95 46.02                                                             
C 24.16 13.95 58.29                                                             
C 28.18 11.62  9.20                                                             
C 28.18 11.62 21.47                                                             
C 28.18 11.62 33.74                                                             
C 28.18 11.62 46.02                                                             
C 28.18 11.62 58.29                                                             
C 28.18 16.27  9.20                                                             
C 28.18 16.27 21.47                                                             
C 28.18 16.27 33.74                                                             
C 28.18 16.27 46.02                                                             
C 28.18 16.27 58.29                                                             
C  1.34  2.32  3.07                                                             
C  1.34  2.32 15.34                                                             
C  1.34  2.32 27.61                                                             
C  1.34  2.32 39.88                                                             
C  1.34  2.32 52.15                                                             
C  5.37  0.00  3.07                                                             
C  5.37  0.00 15.34                                                             
C  5.37  0.00 27.61                                                             
C  5.37  0.00 39.88                                                             
C  5.37  0.00 52.15                                                             
C  1.34  6.97  3.07                                                             
C  1.34  6.97 15.34                                                             
C  1.34  6.97 27.61                                                             
C  1.34  6.97 39.88                                                             
C  1.34  6.97 52.15                                                             
C  5.37  4.65  3.07                                                             
C  5.37  4.65 15.34                                                             
C  5.37  4.65 27.61                                                             
C  5.37  4.65 39.88                                                             
C  5.37  4.65 52.15                                                             
C  9.39  2.32  3.07                                                             
C  9.39  2.32 15.34                                                             
C  9.39  2.32 27.61                                                             
C  9.39  2.32 39.88                                                             
C  9.39  2.32 52.15                                                             
C 13.42  0.00  3.07                                                             
C 13.42  0.00 15.34                                                             
C 13.42  0.00 27.61                                                             
C 13.42  0.00 39.88                                                             
C 13.42  0.00 52.15                                                             
C  1.34 11.62  3.07                                                             
C  1.34 11.62 15.34                                                             
C  1.34 11.62 27.61                                                             
C  1.34 11.62 39.88                                                             
C  1.34 11.62 52.15                                                             
C  5.37  9.30  3.07                                                             
C  5.37  9.30 15.34                                                             
C  5.37  9.30 27.61                                                             
C  5.37  9.30 39.88                                                             
C  5.37  9.30 52.15                                                             
C  9.39  6.97  3.07                                                             
C  9.39  6.97 15.34                                                             
C  9.39  6.97 27.61                                                             
C  9.39  6.97 39.88                                                             
C  9.39  6.97 52.15                                                             
C 13.42  4.65  3.07                                                             
C 13.42  4.65 15.34                                                             
C 13.42  4.65 27.61                                                             
C 13.42  4.65 39.88                                                             
C 13.42  4.65 52.15                                                             
C 17.45  2.32  3.07                                                             
C 17.45  2.32 15.34                                                             
C 17.45  2.32 27.61                                                             
C 17.45  2.32 39.88                                                             
C 17.45  2.32 52.15                                                             
C 21.47  0.00  3.07                                                             
C 21.47  0.00 15.34                                                             
C 21.47  0.00 27.61                                                             
C 21.47  0.00 39.88                                                             
C 21.47  0.00 52.15                                                             
C  1.34 16.27  3.07                                                             
C  1.34 16.27 15.34                                                             
C  1.34 16.27 27.61                                                             
C  1.34 16.27 39.88                                                             
C  1.34 16.27 52.15                                                             
C  5.37 13.95  3.07                                                             
C  5.37 13.95 15.34                                                             
C  5.37 13.95 27.61                                                             
C  5.37 13.95 39.88                                                             
C  5.37 13.95 52.15                                                             
C  9.39 11.62  3.07                                                             
C  9.39 11.62 15.34                                                             
C  9.39 11.62 27.61                                                             
C  9.39 11.62 39.88                                                             
C  9.39 11.62 52.15                                                             
C 13.42  9.30  3.07                                                             
C 13.42  9.30 15.34                                                             
C 13.42  9.30 27.61                                                             
C 13.42  9.30 39.88                                                             
C 13.42  9.30 52.15                                                             
C 17.45  6.97  3.07                                                             
C 17.45  6.97 15.34                                                             
C 17.45  6.97 27.61                                                             
C 17.45  6.97 39.88                                                             
C 17.45  6.97 52.15                                                             
C 21.47  4.65  3.07                                                             
C 21.47  4.65 15.34                                                             
C 21.47  4.65 27.61                                                             
C 21.47  4.65 39.88                                                             
C 21.47  4.65 52.15                                                             
C 25.50  2.32  3.07                                                             
C 25.50  2.32 15.34                                                             
C 25.50  2.32 27.61                                                             
C 25.50  2.32 39.88                                                             
C 25.50  2.32 52.15                                                             
C 29.52  0.00  3.07                                                             
C 29.52  0.00 15.34                                                             
C 29.52  0.00 27.61                                                             
C 29.52  0.00 39.88                                                             
C 29.52  0.00 52.15                                                             
C  9.39 16.27  3.07                                                             
C  9.39 16.27 15.34                                                             
C  9.39 16.27 27.61                                                             
C  9.39 16.27 39.88                                                             
C  9.39 16.27 52.15                                                             
C 13.42 13.95  3.07                                                             
C 13.42 13.95 15.34                                                             
C 13.42 13.95 27.61                                                             
C 13.42 13.95 39.88                                                             
C 13.42 13.95 52.15                                                             
C 17.45 11.62  3.07                                                             
C 17.45 11.62 15.34                                                             
C 17.45 11.62 27.61                                                             
C 17.45 11.62 39.88                                                             
C 17.45 11.62 52.15                                                             
C 21.47  9.30  3.07                                                             
C 21.47  9.30 15.34                                                             
C 21.47  9.30 27.61                                                             
C 21.47  9.30 39.88                                                             
C 21.47  9.30 52.15                                                             
C 25.50  6.97  3.07                                                             
C 25.50  6.97 15.34                                                             
C 25.50  6.97 27.61                                                             
C 25.50  6.97 39.88                                                             
C 25.50  6.97 52.15                                                             
C 29.52  4.65  3.07                                                             
C 29.52  4.65 15.34                                                             
C 29.52  4.65 27.61                                                             
C 29.52  4.65 39.88                                                             
C 29.52  4.65 52.15                                                             
C 17.45 16.27  3.07                                                             
C 17.45 16.27 15.34                                                             
C 17.45 16.27 27.61                                                             
C 17.45 16.27 39.88                                                             
C 17.45 16.27 52.15                                                             
C 21.47 13.95  3.07                                                             
C 21.47 13.95 15.34                                                             
C 21.47 13.95 27.61                                                             
C 21.47 13.95 39.88                                                             
C 21.47 13.95 52.15                                                             
C 25.50 11.62  3.07                                                             
C 25.50 11.62 15.34                                                             
C 25.50 11.62 27.61                                                             
C 25.50 11.62 39.88                                                             
C 25.50 11.62 52.15                                                             
C 29.52  9.30  3.07                                                             
C 29.52  9.30 15.34                                                             
C 29.52  9.30 27.61                                                             
C 29.52  9.30 39.88                                                             
C 29.52  9.30 52.15                                                             
C 25.50 16.27  3.07                                                             
C 25.50 16.27 15.34                                                             
C 25.50 16.27 27.61                                                             
C 25.50 16.27 39.88                                                             
C 25.50 16.27 52.15                                                             
C 29.52 13.95  3.07                                                             
C 29.52 13.95 15.34                                                             
C 29.52 13.95 27.61                                                             
C 29.52 13.95 39.88                                                             
C 29.52 13.95 52.15                                                             
C  2.68  0.00  9.20                                                             
C  2.68  0.00 21.47                                                             
C  2.68  0.00 33.74                                                             
C  2.68  0.00 46.02                                                             
C  2.68  0.00 58.29                                                             
C  2.68  4.65  9.20                                                             
C  2.68  4.65 21.47                                                             
C  2.68  4.65 33.74                                                             
C  2.68  4.65 46.02                                                             
C  2.68  4.65 58.29                                                             
C  6.71  2.32  9.20                                                             
C  6.71  2.32 21.47                                                             
C  6.71  2.32 33.74                                                             
C  6.71  2.32 46.02                                                             
C  6.71  2.32 58.29                                                             
C 10.74  0.00  9.20                                                             
C 10.74  0.00 21.47                                                             
C 10.74  0.00 33.74                                                             
C 10.74  0.00 46.02                                                             
C 10.74  0.00 58.29                                                             
C  2.68  9.30  9.20                                                             
C  2.68  9.30 21.47                                                             
C  2.68  9.30 33.74                                                             
C  2.68  9.30 46.02                                                             
C  2.68  9.30 58.29                                                             
C  6.71  6.97  9.20                                                             
C  6.71  6.97 21.47                                                             
C  6.71  6.97 33.74                                                             
C  6.71  6.97 46.02                                                             
C  6.71  6.97 58.29                                                             
C 10.74  4.65  9.20                                                             
C 10.74  4.65 21.47                                                             
C 10.74  4.65 33.74                                                             
C 10.74  4.65 46.02                                                             
C 10.74  4.65 58.29                                                             
C 14.76  2.32  9.20                                                             
C 14.76  2.32 21.47                                                             
C 14.76  2.32 33.74                                                             
C 14.76  2.32 46.02                                                             
C 14.76  2.32 58.29                                                             
C 18.79  0.00  9.20                                                             
C 18.79  0.00 21.47                                                             
C 18.79  0.00 33.74                                                             
C 18.79  0.00 46.02                                                             
C 18.79  0.00 58.29                                                             
C  2.68 13.95  9.20                                                             
C  2.68 13.95 21.47                                                             
C  2.68 13.95 33.74                                                             
C  2.68 13.95 46.02                                                             
C  2.68 13.95 58.29                                                             
C  6.71 11.62  9.20                                                             
C  6.71 11.62 21.47                                                             
C  6.71 11.62 33.74                                                             
C  6.71 11.62 46.02                                                             
C  6.71 11.62 58.29                                                             
C 10.74  9.30  9.20                                                             
C 10.74  9.30 21.47                                                             
C 10.74  9.30 33.74                                                             
C 10.74  9.30 46.02                                                             
C 10.74  9.30 58.29                                                             
C 14.76  6.97  9.20                                                             
C 14.76  6.97 21.47                                                             
C 14.76  6.97 33.74                                                             
C 14.76  6.97 46.02                                                             
C 14.76  6.97 58.29                                                             
C 18.79  4.65  9.20                                                             
C 18.79  4.65 21.47                                                             
C 18.79  4.65 33.74                                                             
C 18.79  4.65 46.02                                                             
C 18.79  4.65 58.29                                                             
C 22.81  2.32  9.20                                                             
C 22.81  2.32 21.47                                                             
C 22.81  2.32 33.74                                                             
C 22.81  2.32 46.02                                                             
C 22.81  2.32 58.29                                                             
C 26.84  0.00  9.20                                                             
C 26.84  0.00 21.47                                                             
C 26.84  0.00 33.74                                                             
C 26.84  0.00 46.02                                                             
C 26.84  0.00 58.29                                                             
C  6.71 16.27  9.20                                                             
C  6.71 16.27 21.47                                                             
C  6.71 16.27 33.74                                                             
C  6.71 16.27 46.02                                                             
C  6.71 16.27 58.29                                                             
C 10.74 13.95  9.20                                                             
C 10.74 13.95 21.47                                                             
C 10.74 13.95 33.74                                                             
C 10.74 13.95 46.02                                                             
C 10.74 13.95 58.29                                                             
C 14.76 11.62  9.20                                                             
C 14.76 11.62 21.47                                                             
C 14.76 11.62 33.74                                                             
C 14.76 11.62 46.02                                                             
C 14.76 11.62 58.29                                                             
C 18.79  9.30  9.20                                                             
C 18.79  9.30 21.47                                                             
C 18.79  9.30 33.74                                                             
C 18.79  9.30 46.02                                                             
C 18.79  9.30 58.29                                                             
C 22.81  6.97  9.20                                                             
C 22.81  6.97 21.47                                                             
C 22.81  6.97 33.74                                                             
C 22.81  6.97 46.02                                                             
C 22.81  6.97 58.29                                                             
C 26.84  4.65  9.20                                                             
C 26.84  4.65 21.47                                                             
C 26.84  4.65 33.74                                                             
C 26.84  4.65 46.02                                                             
C 26.84  4.65 58.29                                                             
C 30.86  2.32  9.20                                                             
C 30.86  2.32 21.47                                                             
C 30.86  2.32 33.74                                                             
C 30.86  2.32 46.02                                                             
C 30.86  2.32 58.29                                                             
C 14.76 16.27  9.20                                                             
C 14.76 16.27 21.47                                                             
C 14.76 16.27 33.74                                                             
C 14.76 16.27 46.02                                                             
C 14.76 16.27 58.29                                                             
C 18.79 13.95  9.20                                                             
C 18.79 13.95 21.47                                                             
C 18.79 13.95 33.74                                                             
C 18.79 13.95 46.02                                                             
C 18.79 13.95 58.29                                                             
C 22.81 11.62  9.20                                                             
C 22.81 11.62 21.47                                                             
C 22.81 11.62 33.74                                                             
C 22.81 11.62 46.02                                                             
C 22.81 11.62 58.29                                                             
C 26.84  9.30  9.20                                                             
C 26.84  9.30 21.47                                                             
C 26.84  9.30 33.74                                                             
C 26.84  9.30 46.02                                                             
C 26.84  9.30 58.29                                                             
C 30.86  6.97  9.20                                                             
C 30.86  6.97 21.47                                                             
C 30.86  6.97 33.74                                                             
C 30.86  6.97 46.02                                                             
C 30.86  6.97 58.29                                                             
C 22.81 16.27  9.20                                                             
C 22.81 16.27 21.47                                                             
C 22.81 16.27 33.74                                                             
C 22.81 16.27 46.02                                                             
C 22.81 16.27 58.29                                                             
C 26.84 13.95  9.20                                                             
C 26.84 13.95 21.47                                                             
C 26.84 13.95 33.74                                                             
C 26.84 13.95 46.02                                                             
C 26.84 13.95 58.29                                                             
C 30.86 11.62  9.20                                                             
C 30.86 11.62 21.47                                                             
C 30.86 11.62 33.74                                                             
C 30.86 11.62 46.02                                                             
C 30.86 11.62 58.29                                                             
C 30.86 16.27  9.20                                                             
C 30.86 16.27 21.47                                                             
C 30.86 16.27 33.74                                                             
C 30.86 16.27 46.02                                                             
C 30.86 16.27 58.29                                                             
%ENDBLOCK POSITIONS_ABS                                                         

--------------------------------------------------------------------------------
-------------------------------- END INPUT FILE --------------------------------
--------------------------------------------------------------------------------


 
<<<<<<<<<<<<<<<<<<<<<<<<<<<<<<<<< Full system >>>>>>>>>>>>>>>>>>>>>>>>>>>>>>>>>>
<<<<<<<<<<<<<<<<<<<<<<<<<<< PAW Dataset information >>>>>>>>>>>>>>>>>>>>>>>>>>>
File: ~/pp/paw/c_pbe_abinit.paw; rc = 1.25 bohr; shape type =  3; rshape = 1.25 bohr;
  Atomic number:  6;  ionic charge:  4.000000
    Partial Wave 1: l = 0
    Partial Wave 2: l = 0
    Partial Wave 3: l = 1
    Partial Wave 4: l = 1
  Core charge supplied for Nonlinear Core Corrections
<<<<<<<<<<<<<<<<<<<<<<<<<<<<<<<<<<<<<<< >>>>>>>>>>>>>>>>>>>>>>>>>>>>>>>>>>>>>>>

-------------------------- Atom counting information ---------------------------
Symbol    Natoms    Nngwfs    Nprojs
  C        640      2560      5120
.......   ......    ......    ......
Totals:    640      2560      5120
--------------------------------------------------------------------------------

=============================== PSINC grid sizes ===============================
                      Simulation cell:   63 x  35 x 121
                              FFT-box:   63 x  35 x 117
                                  PPD:    7 x   5 x   1
Grid space d1=  0.511269841270a0 (KE cutoff=  29.06054Eh = 790.77748eV)
Grid space d2=  0.531142857143a0 (KE cutoff=  26.92659Eh = 732.70972eV)
Grid space d3=  0.507024793388a0 (KE cutoff=  29.54919Eh = 804.07442eV)
================================================================================
  
WARNING in cell_grid_distribute:
Average of less than one 23-slab per node, so workload cannot be
equally balanced between nodes.

********************* Fourier parallelisation information **********************
       Coarse grid (whole simulation cell) dimensions:     63    35   121
          Real-space ('12') slabs/node (min max mean):      3     4     3
         Recip-space ('23') slabs/node (min max mean):      0     1     0
********************************************************************************

********************* Fourier parallelisation information **********************
       Double grid (whole simulation cell) dimensions:    126    70   242
          Real-space ('12') slabs/node (min max mean):      6     7     6
         Recip-space ('23') slabs/node (min max mean):      1     2     1
********************************************************************************

Atom SCF Calculation for C  : Z (AE atom) =   6 : Z (PS atom) =   4
Config String: 2s2 2p2
Orbitals (num,occ):  2     2.00 2.00
Orbitals   (num,l):  2        0    1
Real-space Grid (nr,dr,rmax): 1293    0.0069659443    9.0000000000
Spherical Bessel Basis (nsws,lmax,cutoff):   37    2  161.4736382572
Confining potential (l,width,scale):  0    3.0000000000  100.0000000000
Confining potential (l,width,scale):  1    3.0000000000  100.0000000000
  1         -5.4129360987   -1.2444937266    4.5135257941   -1.5420271367
  2         -5.3444202281   -1.3377187790    4.4131101426   -1.5071921700
  3         -5.3525226456   -1.3566567794    4.3924752240   -1.5004938544
  4         -5.3561013121   -1.3623552809    4.3862114699   -1.4986199617
  5         -5.3580093800   -1.3653574582    4.3828991843   -1.4976654093
  6         -5.3590276761   -1.3669475005    4.3811409016   -1.4971696795
  7         -5.3595688314   -1.3677934914    4.3802040659   -1.4969088858
  8         -5.3598556216   -1.3682449178    4.3797036984   -1.4967706290
  9         -5.3600074081   -1.3684862338    4.3794360452   -1.4966970063
 10         -5.3600877081   -1.3686153812    4.3792927313   -1.4966576988
 11         -5.3601301919   -1.3686845537    4.3792159394   -1.4966366788
 12         -5.3601526758   -1.3687216261    4.3791747687   -1.4966254262
 13         -5.3601645804   -1.3687415049    4.3791526850   -1.4966193980
 14         -5.3601708871   -1.3687521691    4.3791408341   -1.4966161667
 15         -5.3601742301   -1.3687578926    4.3791344719   -1.4966144337
 16         -5.3601760032   -1.3687609656    4.3791310549   -1.4966135039
 17         -5.3601769442   -1.3687626162    4.3791292190   -1.4966130048
 18         -5.3601774440   -1.3687635032    4.3791282322   -1.4966127369
 19         -5.3601777096   -1.3687639799    4.3791277016   -1.4966125929
 20         -5.3601778508   -1.3687642363    4.3791274162   -1.4966125155
 21         -5.3601779259   -1.3687643743    4.3791272626   -1.4966124740
Atom SCF converged after  21 iterations to a total energy of     -5.36017793

Determining parallel strategy ...
... using space-filling curve
... NGWF load balancing: max     64;  min     64;  average     64
... Projector load balancing: max    128;  min    128;  average    128
... done
Calculating Ewald energy ...
              Ewald: real-space energy =    9518.425052
        Ewald: reciprocal-space energy =       0.057844
         Ewald: (sum_charge)**2 Energy =   11438.306150
         Ewald: (sum_charge**2) Energy =     904.277500
                          Ewald Energy =   -2824.100754
Basis initialisation ...... NGWF spheres initialised
... Projector spheres initialised
... NGWF tight boxes initialised
... Projector tight boxes initialised
... Tight-boxes gathered
... NGWF basis size (local,global):     693844  27898816
... PAW projector initialisation
... done

============================= Charge Augmentation ==============================
                           Aug box size:   11 x  11 x  11
================================================================================

========================== Sparse matrix information ===========================
                        Overlap matrix filling:  44.38%
                        Density kernel filling: 100.00%
              NGWF-Proj overlap matrix filling:  13.12%
                    Aug Overlap matrix filling:  47.81%
                    Hamiltonian matrix filling:  47.81%
                  NGWF diagonal matrix filling:   0.16%
                             KS matrix filling: 100.00% 
                           KSKS matrix filling: 100.00% 
================================================================================

Sparse matrix initialisation ... done
NGWF initialisation ...... done
============ Calculation of NGWF S^-1 using Hotelling algorithm ================ 
         Iteration  |  Frobenius norm and Maximum abs value    (of I-S*S_n^-1)   
               1       0.49211716E+02     0.97802614E+00
               2       0.48087564E+02     0.95781847E+00
               3       0.46370664E+02     0.92174863E+00
               4       0.44100876E+02     0.86233255E+00
               5       0.41354601E+02     0.77365576E+00
               6       0.38112211E+02     0.68995028E+00
               7       0.34643785E+02     0.64062639E+00
               8       0.31342046E+02     0.60023808E+00
               9       0.27971633E+02     0.56034890E+00
              10       0.23832465E+02     0.50083286E+00
              11       0.18396070E+02     0.40373013E+00
              12       0.11807389E+02     0.26704489E+00
              13       0.54842313E+01     0.12303699E+00
              14       0.14059767E+01     0.29402864E-01
              15       0.10997180E+00     0.20341140E-02
              16       0.82838009E-03     0.12275727E-04
              17       0.68649996E-07     0.65084238E-09
              18       0.86937721E-13     0.42188475E-14
================================================================================
Calculating core density ...
================================= Core Density =================================
               Core den box size:   21 x  21 x  21
================================================================================
 ... done
Up spin density kernel initialisation ...... done

Writing density kernel to file "3.2466752_GO_manual_4x64graphite.dkn" ... done

>>> Optimising kernel for current NGWFs:

--------------------------- Ensemble-DFT optimisation --------------------------
Running ScaLAPACK on   40 processor(s).

--------------------------------------------------------------------------------
  Iter                              Commutator    Free_energy(A=E-TS)     DeltaA
#    0                          0.000046918997   -3619.15521324813380  -3.62E+03

Step                       =       0.381966011250
Energy                     =   -3619.155178844999
Entropy (-TS)              =      -0.000034403585
Free energy (A=E-TS)       =   -3619.155213248134
Est. 0K Energy 0.5*(E+A)   =   -3619.155196046566
Residual Non-orthogonality =       0.000000000000
Residual N_electrons       =       0.000000000450

Spin          Integrated_Ne            Fermi_level     Delta_Fermi_level
   1      2559.999999998067         0.232985008213              2.33E-01

                           Spin 1          
     Orb      H-eigenvalues     Occupancies
       1 |    -0.4938163441    1.0000000000 | 
                          ------
    1276 |     0.1995687698    0.9999738599 | 
    1277 |     0.2001767385    0.9999683276 | 
    1278 |     0.2001915918    0.9999681787 | 
    1279 |     0.2006138648    0.9999636398 | 
    1280 |     0.2012256042    0.9999558921 | 
                 - Gap at zero temperature -
    1281 |     0.2672316544    0.0000201107 | 
    1282 |     0.2672490666    0.0000200005 | 
    1283 |     0.2673808516    0.0000191853 | 
    1284 |     0.2674507303    0.0000187666 | 
    1285 |     0.2674681561    0.0000186636 | 
                          ------
    2560 |     1.0743913293    0.0000000000 | 

                       |  Abs_value |  Threshold | Converged
     Delta_Free_energy |   3.62E+03 |   1.00E-06 |        No
     Delta_Energy      |   3.62E+03 |   1.00E-04 |        No
     Delta_Entropy     |   3.44E-05 |   1.00E-04 |       Yes
     Commutator        |   4.69E-05 |   1.00E-05 |        No
     Delta_Fermi_level |   2.33E-01 |   1.00E-03 |        No

  Line search of the free energy minimum:
  Step_type        Step             Free_energy   Predicted_free_energy
.   Initial    0.000000    -3619.15521324813380
.    Trial1    0.381966    -3619.15765637747518
.    Trial2    0.618034    -3619.15745229923323
. Quadratic    0.463207    -3619.15773385539933    -3619.15773391579069

--------------------------------------------------------------------------------
  Iter                              Commutator    Free_energy(A=E-TS)     DeltaA
#    1                          0.000023395278   -3619.15773385539933  -2.52E-03

Step                       =       0.463207068154
Energy                     =   -3619.157699073335
Entropy (-TS)              =      -0.000034781624
Free energy (A=E-TS)       =   -3619.157733855399
Est. 0K Energy 0.5*(E+A)   =   -3619.157716464367
Residual Non-orthogonality =       0.000000000000
Residual N_electrons       =      -0.000000000441

Spin          Integrated_Ne            Fermi_level     Delta_Fermi_level
   1      2560.000000001885         0.233781347920              7.96E-04

                           Spin 1          
     Orb      H-eigenvalues     Occupancies
       1 |    -0.4927820819    1.0000000000 | 
                          ------
    1276 |     0.2004778872    0.9999729122 | 
    1277 |     0.2009538044    0.9999685198 | 
    1278 |     0.2009693211    0.9999683651 | 
    1279 |     0.2015466919    0.9999620385 | 
    1280 |     0.2020275572    0.9999558138 | 
                 - Gap at zero temperature -
    1281 |     0.2679772602    0.0000204355 | 
    1282 |     0.2680033164    0.0000202681 | 
    1283 |     0.2681452923    0.0000193795 | 
    1284 |     0.2681742911    0.0000192028 | 
    1285 |     0.2682064026    0.0000190091 | 
                          ------
    2560 |     1.0765766926    0.0000000000 | 

                       |  Abs_value |  Threshold | Converged
     Delta_Free_energy |   2.52E-03 |   1.00E-06 |        No
     Delta_Energy      |   2.52E-03 |   1.00E-04 |        No
     Delta_Entropy     |   3.78E-07 |   1.00E-04 |       Yes
     Commutator        |   2.34E-05 |   1.00E-05 |        No
     Delta_Fermi_level |   7.96E-04 |   1.00E-03 |       Yes

  Line search of the free energy minimum:
  Step_type        Step             Free_energy   Predicted_free_energy
.   Initial    0.000000    -3619.15773385539933
.    Trial1    0.463207    -3619.15810495513779
.    Trial2    0.668244    -3619.15754790850178
. Quadratic    0.307694    -3619.15823234681829    -3619.15823227392048

--------------------------------------------------------------------------------
  Iter                              Commutator    Free_energy(A=E-TS)     DeltaA
#    2                          0.000015205922   -3619.15823234681829  -4.98E-04

Step                       =       0.307693692978
Energy                     =   -3619.158197565393
Entropy (-TS)              =      -0.000034781280
Free energy (A=E-TS)       =   -3619.158232346818
Est. 0K Energy 0.5*(E+A)   =   -3619.158214956106
Residual Non-orthogonality =       0.000000000000
Residual N_electrons       =      -0.000000000145

Spin          Integrated_Ne            Fermi_level     Delta_Fermi_level
   1      2560.000000000618         0.234008313507              2.27E-04

                           Spin 1          
     Orb      H-eigenvalues     Occupancies
       1 |    -0.4924351435    1.0000000000 | 
                          ------
    1276 |     0.2006860204    0.9999730728 | 
    1277 |     0.2011973252    0.9999683548 | 
    1278 |     0.2012134587    0.9999681931 | 
    1279 |     0.2017482581    0.9999623417 | 
    1280 |     0.2022649593    0.9999556680 | 
                 - Gap at zero temperature -
    1281 |     0.2682071705    0.0000204165 | 
    1282 |     0.2682356660    0.0000202336 | 
    1283 |     0.2683816120    0.0000193223 | 
    1284 |     0.2684121289    0.0000191370 | 
    1285 |     0.2684537132    0.0000188874 | 
                          ------
    2560 |     1.0773234193    0.0000000000 | 

                       |  Abs_value |  Threshold | Converged
     Delta_Free_energy |   4.98E-04 |   1.00E-06 |        No
     Delta_Energy      |   4.98E-04 |   1.00E-04 |        No
     Delta_Entropy     |   3.44E-10 |   1.00E-04 |       Yes
     Commutator        |   1.52E-05 |   1.00E-05 |        No
     Delta_Fermi_level |   2.27E-04 |   1.00E-03 |       Yes

  Line search of the free energy minimum:
  Step_type        Step             Free_energy   Predicted_free_energy
.   Initial    0.000000    -3619.15823234681829
.    Trial1    0.307694    -3619.15842222249739
.    Trial2    0.572131    -3619.15819148804394
. Quadratic    0.272351    -3619.15842547500051    -3619.15842547470584

--------------------------------------------------------------------------------
  Iter                              Commutator    Free_energy(A=E-TS)     DeltaA
#    3                          0.000010485547   -3619.15842547500051  -1.93E-04

Step                       =       0.272351287139
Energy                     =   -3619.158390676034
Entropy (-TS)              =      -0.000034799383
Free energy (A=E-TS)       =   -3619.158425475001
Est. 0K Energy 0.5*(E+A)   =   -3619.158408075517
Residual Non-orthogonality =       0.000000000000
Residual N_electrons       =       0.000000000417

Spin          Integrated_Ne            Fermi_level     Delta_Fermi_level
   1      2559.999999998219         0.234150169968              1.42E-04

                           Spin 1          
     Orb      H-eigenvalues     Occupancies
       1 |    -0.4922201671    1.0000000000 | 
                          ------
    1276 |     0.2008277387    0.9999730740 | 
    1277 |     0.2013431617    0.9999683150 | 
    1278 |     0.2013594339    0.9999681517 | 
    1279 |     0.2018889512    0.9999623556 | 
    1280 |     0.2024099068    0.9999556247 | 
                 - Gap at zero temperature -
    1281 |     0.2683459359    0.0000204365 | 
    1282 |     0.2683757373    0.0000202451 | 
    1283 |     0.2685233413    0.0000193231 | 
    1284 |     0.2685525656    0.0000191456 | 
    1285 |     0.2685960489    0.0000188845 | 
                          ------
    2560 |     1.0777878728    0.0000000000 | 

                       |  Abs_value |  Threshold | Converged
     Delta_Free_energy |   1.93E-04 |   1.00E-06 |        No
     Delta_Energy      |   1.93E-04 |   1.00E-04 |        No
     Delta_Entropy     |   1.81E-08 |   1.00E-04 |       Yes
     Commutator        |   1.05E-05 |   1.00E-05 |        No
     Delta_Fermi_level |   1.42E-04 |   1.00E-03 |       Yes

  Line search of the free energy minimum:
  Step_type        Step             Free_energy   Predicted_free_energy
.   Initial    0.000000    -3619.15842547500051
.    Trial1    0.272351    -3619.15851671490691
.    Trial2    0.550288    -3619.15843904805706
. Quadratic    0.286189    -3619.15851692901379    -3619.15851692871775

--------------------------------------------------------------------------------
  Iter                              Commutator    Free_energy(A=E-TS)     DeltaA
#    4                          0.000007663722   -3619.15851692901379  -9.15E-05

Step                       =       0.286189090220
Energy                     =   -3619.158482110855
Entropy (-TS)              =      -0.000034818475
Free energy (A=E-TS)       =   -3619.158516929014
[...]
 C   160 -- C   385       -0.10      5.37000
 C   159 -- C   384       -0.10      5.37000
 C   158 -- C   383       -0.10      5.37000
 C   157 -- C   382       -0.10      5.37000
 C   156 -- C   381       -0.10      5.37000
 C   155 -- C   355       -0.10      5.37000
 C   154 -- C   354       -0.10      5.37000
 C   153 -- C   353       -0.10      5.37000
 C   152 -- C   352       -0.10      5.37000
 C   151 -- C   351       -0.10      5.37000
 C   140 -- C   335       -0.10      5.37000
 C   139 -- C   334       -0.10      5.37000
 C   138 -- C   333       -0.10      5.37000
 C   137 -- C   332       -0.10      5.37000
 C   136 -- C   331       -0.10      5.37000
 C   115 -- C   325       -0.10      5.37000
 C   114 -- C   324       -0.10      5.37000
 C   113 -- C   323       -0.10      5.37000
 C   112 -- C   322       -0.10      5.37000
 C   111 -- C   321       -0.10      5.37000
 C   219 -- C   569       -0.10      5.37202
 C   218 -- C   568       -0.10      5.37202
 C   217 -- C   567       -0.10      5.37202
 C   216 -- C   566       -0.10      5.37202
 C   250 -- C   540       -0.10      5.37202
 C   249 -- C   539       -0.10      5.37202
 C   248 -- C   538       -0.10      5.37202
 C   247 -- C   537       -0.10      5.37202
 C   246 -- C   536       -0.10      5.37202
 C   220 -- C   570       -0.10      5.37202
 C   285 -- C   580       -0.10      5.37202
 C   284 -- C   579       -0.10      5.37202
 C   283 -- C   578       -0.10      5.37202
 C   282 -- C   577       -0.10      5.37202
 C   281 -- C   576       -0.10      5.37202
 C   260 -- C   605       -0.10      5.37202
 C   259 -- C   604       -0.10      5.37202
 C   258 -- C   603       -0.10      5.37202
 C   257 -- C   602       -0.10      5.37202
 C   256 -- C   601       -0.10      5.37202
 C   220 -- C   515       -0.10      5.37202
 C   219 -- C   514       -0.10      5.37202
 C   218 -- C   513       -0.10      5.37202
 C   217 -- C   512       -0.10      5.37202
 C   216 -- C   511       -0.10      5.37202
 C   195 -- C   540       -0.10      5.37202
 C   195 -- C   500       -0.10      5.37202
 C   194 -- C   539       -0.10      5.37202
 C   194 -- C   499       -0.10      5.37202
 C   193 -- C   538       -0.10      5.37202
 C   193 -- C   498       -0.10      5.37202
 C   192 -- C   537       -0.10      5.37202
 C   192 -- C   497       -0.10      5.37202
 C   191 -- C   536       -0.10      5.37202
 C   191 -- C   496       -0.10      5.37202
 C   180 -- C   515       -0.10      5.37202
 C   179 -- C   514       -0.10      5.37202
 C   178 -- C   513       -0.10      5.37202
 C   177 -- C   512       -0.10      5.37202
 C   176 -- C   511       -0.10      5.37202
 C    11 -- C   331       -0.10      5.37202
 C   205 -- C   550       -0.10      5.37202
 C   204 -- C   549       -0.10      5.37202
 C   203 -- C   548       -0.10      5.37202
 C   202 -- C   547       -0.10      5.37202
 C   201 -- C   546       -0.10      5.37202
 C    95 -- C   425       -0.10      5.37202
 C    95 -- C   365       -0.10      5.37202
 C    94 -- C   424       -0.10      5.37202
 C    94 -- C   364       -0.10      5.37202
 C    93 -- C   423       -0.10      5.37202
 C    93 -- C   363       -0.10      5.37202
 C    92 -- C   422       -0.10      5.37202
 C    92 -- C   362       -0.10      5.37202
 C    91 -- C   421       -0.10      5.37202
 C    91 -- C   361       -0.10      5.37202
 C    40 -- C   365       -0.10      5.37202
 C    39 -- C   364       -0.10      5.37202
 C    38 -- C   363       -0.10      5.37202
 C    37 -- C   362       -0.10      5.37202
 C    36 -- C   361       -0.10      5.37202
 C    15 -- C   335       -0.10      5.37202
 C    65 -- C   395       -0.10      5.37202
 C    65 -- C   345       -0.10      5.37202
 C    64 -- C   394       -0.10      5.37202
 C    64 -- C   344       -0.10      5.37202
 C    63 -- C   393       -0.10      5.37202
 C    30 -- C   355       -0.10      5.37202
 C    63 -- C   343       -0.10      5.37202
 C    62 -- C   392       -0.10      5.37202
 C    30 -- C   325       -0.10      5.37202
 C    14 -- C   334       -0.10      5.37202
 C    62 -- C   342       -0.10      5.37202
 C    61 -- C   391       -0.10      5.37202
 C    29 -- C   354       -0.10      5.37202
 C    61 -- C   341       -0.10      5.37202
 C    29 -- C   324       -0.10      5.37202
 C   260 -- C   550       -0.10      5.37202
 C   259 -- C   549       -0.10      5.37202
 C    28 -- C   353       -0.10      5.37202
 C   258 -- C   548       -0.10      5.37202
 C   257 -- C   547       -0.10      5.37202
 C   256 -- C   546       -0.10      5.37202
 C    28 -- C   323       -0.10      5.37202
 C    27 -- C   352       -0.10      5.37202
 C    13 -- C   333       -0.10      5.37202
 C    27 -- C   322       -0.10      5.37202
 C   120 -- C   395       -0.10      5.37202
 C    26 -- C   351       -0.10      5.37202
 C   119 -- C   394       -0.10      5.37202
 C   118 -- C   393       -0.10      5.37202
 C    55 -- C   335       -0.10      5.37202
 C   117 -- C   392       -0.10      5.37202
 C    26 -- C   321       -0.10      5.37202
 C   116 -- C   391       -0.10      5.37202
 C    54 -- C   334       -0.10      5.37202
 C    12 -- C   332       -0.10      5.37202
 C    53 -- C   333       -0.10      5.37202
 C   230 -- C   580       -0.10      5.37202
 C   230 -- C   525       -0.10      5.37202
 C   229 -- C   579       -0.10      5.37202
 C   229 -- C   524       -0.10      5.37202
 C   228 -- C   578       -0.10      5.37202
 C    52 -- C   332       -0.10      5.37202
 C   228 -- C   523       -0.10      5.37202
 C   227 -- C   577       -0.10      5.37202
 C   227 -- C   522       -0.10      5.37202
 C   226 -- C   576       -0.10      5.37202
 C   226 -- C   521       -0.10      5.37202
 C    51 -- C   331       -0.10      5.37202
 C    23 -- C   478       -0.10      5.37202
 C    49 -- C   469       -0.10      5.37202
 C    48 -- C   468       -0.10      5.37202
 C    47 -- C   467       -0.10      5.37202
 C    22 -- C   477       -0.10      5.37202
 C    46 -- C   466       -0.10      5.37202
 C    21 -- C   476       -0.10      5.37202
 C    85 -- C   355       -0.10      5.37202
 C    84 -- C   354       -0.10      5.37202
 C    83 -- C   353       -0.10      5.37202
 C    82 -- C   352       -0.10      5.37202
 C    81 -- C   351       -0.10      5.37202
 C    55 -- C   385       -0.10      5.37202
 C    54 -- C   384       -0.10      5.37202
 C    25 -- C   480       -0.10      5.37202
 C    53 -- C   383       -0.10      5.37202
 C    52 -- C   382       -0.10      5.37202
 C    51 -- C   381       -0.10      5.37202
 C    24 -- C   479       -0.10      5.37202
 C    50 -- C   470       -0.10      5.37202
 C    24 -- C   449       -0.10      5.37202
 C     6 -- C   416       -0.10      5.37202
 C    23 -- C   448       -0.10      5.37202
 C    22 -- C   447       -0.10      5.37202
 C    10 -- C   470       -0.10      5.37202
 C     5 -- C   450       -0.10      5.37202
 C    21 -- C   446       -0.10      5.37202
 C    10 -- C   420       -0.10      5.37202
 C     9 -- C   469       -0.10      5.37202
 C     9 -- C   419       -0.10      5.37202
 C     8 -- C   468       -0.10      5.37202
 C     4 -- C   449       -0.10      5.37202
 C   150 -- C   440       -0.10      5.37202
 C   149 -- C   439       -0.10      5.37202
 C   148 -- C   438       -0.10      5.37202
 C   147 -- C   437       -0.10      5.37202
 C     8 -- C   418       -0.10      5.37202
 C   146 -- C   436       -0.10      5.37202
 C     2 -- C   447       -0.10      5.37202
 C   135 -- C   460       -0.10      5.37202
 C     7 -- C   467       -0.10      5.37202
 C   134 -- C   459       -0.10      5.37202
 C   133 -- C   458       -0.10      5.37202
 C   132 -- C   457       -0.10      5.37202
 C   131 -- C   456       -0.10      5.37202
 C     7 -- C   417       -0.10      5.37202
 C     1 -- C   446       -0.10      5.37202
 C     6 -- C   466       -0.10      5.37202
 C    25 -- C   450       -0.10      5.37202
 C     3 -- C   448       -0.10      5.37202
 C   106 -- C   436       -0.10      5.37202
 C   106 -- C   376       -0.10      5.37202
 C    80 -- C   410       -0.10      5.37202
 C    79 -- C   409       -0.10      5.37202
 C    78 -- C   408       -0.10      5.37202
 C    77 -- C   407       -0.10      5.37202
 C    76 -- C   406       -0.10      5.37202
 C   135 -- C   410       -0.10      5.37202
 C   134 -- C   409       -0.10      5.37202
 C   133 -- C   408       -0.10      5.37202
 C   132 -- C   407       -0.10      5.37202
 C   131 -- C   406       -0.10      5.37202
 C   110 -- C   440       -0.10      5.37202
 C   110 -- C   380       -0.10      5.37202
 C   109 -- C   439       -0.10      5.37202
 C   109 -- C   379       -0.10      5.37202
 C   108 -- C   438       -0.10      5.37202
 C   108 -- C   378       -0.10      5.37202
 C   107 -- C   437       -0.10      5.37202
 C   107 -- C   377       -0.10      5.37202
 C   215 -- C   635       -0.10      5.38000
 C   214 -- C   634       -0.10      5.38000
 C   213 -- C   633       -0.10      5.38000
 C   212 -- C   632       -0.10      5.38000
 C   211 -- C   631       -0.10      5.38000
 C   190 -- C   620       -0.10      5.38000
 C   189 -- C   619       -0.10      5.38000
 C   188 -- C   618       -0.10      5.38000
 C   187 -- C   617       -0.10      5.38000
 C   186 -- C   616       -0.10      5.38000
 C   175 -- C   595       -0.10      5.38000
 C   174 -- C   594       -0.10      5.38000
 C   173 -- C   593       -0.10      5.38000
 C   172 -- C   592       -0.10      5.38000
 C   171 -- C   591       -0.10      5.38000
 C   245 -- C   640       -0.10      5.38000
 C   244 -- C   639       -0.10      5.38000
 C   243 -- C   638       -0.10      5.38000
 C   242 -- C   637       -0.10      5.38000
 C   241 -- C   636       -0.10      5.38000
==================================================


=================== Orbital energy and occupancy information ===================

      Total number of orbitals:    2560
        Occupancy sum (kernel):    1280.000000001
   Occupancy sum (eigenvalues):    1280.000000001
                 HOMO-LUMO gap:       0.000012401 Eh
                 Mid-gap level:       0.304954109 Eh

                        Orbital | Energy (Eh) | Occupancy
                            1    -0.450871694   1.0000000
                        .......   ...........   .........
                         1272     0.236935717   0.9999877
                         1273     0.237344984   0.9999860
                         1274     0.237408812   0.9999857
                         1275     0.241214208   0.9999524
                         1276     0.241238164   0.9999521
                         1277     0.241662887   0.9999452
                         1278     0.241686762   0.9999448
                         1279     0.241904883   0.9999408
                         1280     0.242337307   0.9999321
                         1281     0.304947908   0.0000381
                        ....... -- gap at 0K -- .........
                         1282     0.304960309   0.0000379
                         1283     0.305193615   0.0000352
                         1284     0.305205730   0.0000351
                         1285     0.306024935   0.0000272
                         1286     0.306045215   0.0000270
                         1287     0.306287502   0.0000251
                         1288     0.306307713   0.0000249
                         1289     0.306746627   0.0000217
                         1290     0.306824169   0.0000210
                         1291     0.306865457   0.0000207
                        .......   ...........   .........
                         2560     1.172788651   0.0000000

================================================================================

===================== Writing canonical molecular orbitals =====================
| Orbital  Energy (eV)  Norm     |
| HOMO      8.29805481  1.000000 | Writing "3.2466752_GO_manual_4x64graphite_HOMO.cube" ... done
Writing "3.2466752_GO_manual_4x64graphite_HOMO.dx" ... done
| LUMO      8.29839227  1.000000 | Writing "3.2466752_GO_manual_4x64graphite_LUMO.cube" ... done
Writing "3.2466752_GO_manual_4x64graphite_LUMO.dx" ... done
================================================================================
 
===================== Density of States (DOS) calculation ======================
Writing "3.2466752_GO_manual_4x64graphite_DOS.txt" ...  done
================================================================================
 
Writing bands to file "3.2466752_GO_manual_4x64graphite.val_bands" ... done
 
================ Projected Density of States (pDOS) calculation ================
 
Constructing AM resolved functions  ...... done
Writing NGWF plot files in formats: CUBE DX ...  done
 
Performing overlap integrals ...  done
 
Computing pDOS weights ...  done
 
All bands spilling parameter =   3.87 %
Occupancy-weighted spilling parameter =   0.81 %
 
 => Outputting data for OptaDOS <=
 
Writing pDOS weights to file "3.2466752_GO_manual_4x64graphite.val_pdos_bin" ... done
 
Writing band gradients to file "3.2466752_GO_manual_4x64graphite.val_dome_bin" ... done
 
Writing Castep output cell file to "3.2466752_GO_manual_4x64graphite-out.cell" ... done
 
 => Computing Gaussian smeared pDOS <= 
Writing "3.2466752_GO_manual_4x64graphite_PDOS.txt" ...  done
 
 => Computing Occupancy-weighted Gaussian smeared pDOS <= 
Writing "3.2466752_GO_manual_4x64graphite_occ_PDOS.txt" ...  done
  => Band centres: 
 S band centre of group 1:  -15.461506 eV
 P band centre of group 1:   -8.402596 eV
  Band centres done. <=
  => Integrated number of electrons in each AM band: 
 S num electrons of group 1:  571.667320
 P num electrons of group 1: 1967.476510
  Integrated number of electrons done. <=
================================================================================

------------------------------ TIMING INFORMATION ------------------------------
AVERAGE TIME:    4143.007s on     40 node(s)                                    
TOTAL TIME:      4143.008s on     40 node(s)                                    
================= AVERAGE TIMINGS FROM ALL NODES (CUMULATIVE) ==================
|| TAG                                    #calls    cpu time   %total  Gflops ||
|| work_imbalance                       :     1        0.00s   0.000%  ------ ||
|| paw_tcore_hartree_on_grid            :     1        0.01s   0.000%  ------ ||
|| paw_tcore_density                    :     1        0.01s   0.000%  ------ ||
|| paw_sphere_density_on_grid           :     1        0.01s   0.000%  ------ ||
|| sparse_set_to_garbage                :   171        0.03s   0.001%  ------ ||
|| paw_dij_hartree                      :   369        0.05s   0.001%  ------ ||
|| pseudo_make_structure_factor         :     1        0.05s   0.001%  ------ ||
|| basis_extract_function_from_box      :  1920        0.08s   0.002%  ------ ||
|| paw_species_calc_proj_prec_mat       :     1        0.12s   0.003%  ------ ||
|| paw_dataset_init                     :     1        0.18s   0.004%  ------ ||
|| density_init_guess_real              :     1        0.19s   0.005%  ------ ||
|| ngwfs_initialise_from_radial         :     2        0.67s   0.016%  ------ ||
|| restart_kernel_write                 :    16        0.79s   0.019%  ------ ||
|| sparse_init                          :     1        0.98s   0.024%  ------ ||
|| dense_normal_eigensolve              :     1        0.99s   0.024%  ------ ||
|| hartree_on_grid                      :   277        1.49s   0.036%  ------ ||
|| ewald_calculate_energy               :     1        2.31s   0.056%  ------ ||
|| projectors_init_fftbox_recip         :   151        2.95s   0.071%  ------ ||
|| fourier_apply_box_pair               :  2848        4.71s   0.114% 561.160 ||
|| basis_copy_function_to_box           : 26112        5.62s   0.136%  ------ ||
|| augmentation_screen_dij              :   282        6.04s   0.146%  ------ ||
|| sw_init                              :     1        6.74s   0.163%  ------ ||
|| sparse_embed_hotelling_invert_embed  :    29        8.88s   0.214%  ------ ||
|| ngwf_gradient_coeffs                 :    15       12.60s   0.304%  ------ ||
|| fourier_apply_cell_backward          :  8558       14.92s   0.360%  65.038 ||
|| cell_grid_extract_box_real           : 10988       16.17s   0.390%  ------ ||
|| fourier_apply_cell_forward           :  8005       18.11s   0.437%  50.124 ||
|| sparse_trace                         :  3350       18.64s   0.450%  ------ ||
|| cell_grid_deposit_box_real           : 35632       23.12s   0.558%  ------ ||
|| paw_dij_xc                           :   369       38.80s   0.937%  ------ ||
|| density_fftbox_deposit_to_cell       : 17728       46.52s   1.123%  ------ ||
|| hamiltonian_energy_components        :     3       50.14s   1.210%  ------ ||
|| aug_nonlocal_mat                     :   354       51.33s   1.239%  ------ ||
|| eigenstates_pdos                     :     1       54.18s   1.308%  ------ ||
|| augmentation_density_on_grid         :   277       54.65s   1.319%  ------ ||
|| eigenstates_calculate                :     1       58.50s   1.412%  ------ ||
|| function_ops_brappd_ketppd           :    60       67.01s   1.617%  ------ ||
|| projectors_func_ovlp_box             :    30       73.40s   1.772%  ------ ||
|| nlxc_vdw_energy                      :   552       76.94s   1.857%  ------ ||
|| xc_energy_potential                  :   276       79.02s   1.907%  ------ ||
|| restart_ngwfs_tightbox_output        :    14      105.68s   2.551%  ------ ||
|| properties_calculate                 :     1      105.97s   2.558%  ------ ||
|| integrals_kinetic                    :    29      107.76s   2.601%  ------ ||
|| dense_eigensolve                     :   244      113.44s   2.738%  ------ ||
|| potential_apply_to_ngwf_batch        :   344      134.54s   3.248%  ------ ||
|| sparse_product                       :  3356      153.50s   3.705%  ------ ||
|| basis_dot_function_with_box          : 8.598M     234.87s   5.669%  ------ ||
|| fourier_apply_box                    : 82128      255.19s   6.160% 979.851 ||
|| edft_diag_ngwf_ham                   :   243      262.37s   6.333%  ------ ||
|| projectors_gradient_batch            :    60      283.18s   6.835%  ------ ||
|| integrals_locpot_mat_els_batch       :   344      322.58s   7.786%  ------ ||
|| density_fftbox_interpolate_multiply  : 17728      343.84s   8.299%  ------ ||
|| projectors_grad_precond_batch        :    60      413.62s   9.984%  ------ ||
|| density_batch_interp_deposit         :  1108      433.26s  10.458%  ------ ||
|| integrals_locpot_dbl_grid            :    86      458.92s  11.077%  ------ ||
|| edft_apply_smearing_operator         :   243      518.85s  12.524%  ------ ||
|| basis_add_function_to_box            : 24.50M     641.55s  15.485%  ------ ||
|| ngwf_gradient_build_batch            :    60      742.12s  17.913%  ------ ||
|| density_batch_row_sums               :  1108      936.86s  22.613%  ------ ||
|| ngwf_gradient_batch                  :    60      982.42s  23.713%  ------ ||
|| ngwf_gradient_lnv                    :    15     1014.72s  24.492%  ------ ||
|| density_on_dbl_grid                  :   277     1383.86s  33.402%  ------ ||
|| hamiltonian_lhxc_calculate           :   272     1499.83s  36.201%  ------ ||
|| edft_calculate                       :    15     2484.03s  59.957%  ------ ||
|| ngwf_cg_optimise                     :     1     4016.53s  96.947%  ------ ||
|| total_time                           :     1     4143.01s 100.000%  ------ ||
================================================================================
Overhead of generating timer report: 
- 0 ms averaging over threads,
- 5 ms ensuring consistency across MPI ranks,
- 0 ms printing in order.

Job completed: 21-02-2020 17:27 (-0000)

