 +---------------------------------------------------------------+
 |                                                               |
 |        ####### #     # ####### ####### ####### ######         |
 |        #     # ##    # #          #    #       #     #        |
 |        #     # # #   # #          #    #       #     #        |
 |        #     # #  #  # #####      #    #####   ######         |
 |        #     # #   # # #          #    #       #              |
 |        #     # #    ## #          #    #       #              |
 |        ####### #     # #######    #    ####### #              |
 |                                                               |
 |        Linear-Scaling Ab Initio Total Energy Program          |
 |                                                               |
 |          Release for academic collaborators of ODG            |
 |                                             Version 5.3.2.12  |
 |                                                               |
 +---------------------------------------------------------------+
 |                                                               |
 |  Authors:                                                     |
 |  Jacek Dziedzic, Peter D. Haynes, Nicholas D. M. Hine,        |
 |  Arash. A. Mostofi, Mike C. Payne and Chris-Kriton Skylaris   |
 |                                                               |
 |  Contributors:                                                |
 |  J. Aarons, L. Andrinopoulos, P. W. Avraam, R. A. Bell,       |
 |  A. Bhandari, G. A. Bramley, R. J. Charlton, S. J. Clark,     |
 |  R. J. Clements, G. C. Constantinescu, F. Corsetti,           |
 |  N. Corsini, O. Dieguez, S. M. M. Dubois, K. K. B. Duff,      |
 |  J. M. Escartin, A. Greco, H. Helal, Q. O. Hill, L. P. Lee,   |
 |  J.-H. Li, E. B. Linscott, G. Moynihan, D. D. O`Regan,        |
 |  O. K. Okan, M. J. S. Phipps, C. J. Pickard,                  |
 |  J. C. A. Prentice, M. I. J. Probert, L. E. Ratcliff,         |
 |  M. Robinson, A. Ruiz Serrano, J. S. Spencer, E. W. Tait,     |
 |  G. Teobaldi, D. Turban, V. Vitale, K. A. Wilkinson,          |
 |  C. Weber, J. C. Womack, N. Yeung and T. J. Zuehlsdorff       |
 |                                                               |
 |                                   Copyright (c) 2004-2020     |
 |                                                               |
 |  Please cite:                                                 |
 |  "Introducing ONETEP: Linear-scaling density functional       |
 |   simulations on parallel computers".                         |
 |   C.-K. Skylaris, P. D. Haynes, A. A. Mostofi, M. C. Payne.   |
 |   J. Chem. Phys. 122 084119 (2005).                           |
 |                                                               |
 |          in all publications arising from your use of ONETEP. |
 |                                                               |
 +---------------------------------------------------------------+
 |                                                               |
 |   ONETEP is based on developments described in the following  |
 |   publications:                                               |
 |                                                               |
 |  "Nonorthogonal generalized Wannier function pseudopotential  |
 |   plane-wave method".                                         |
 |   C.-K. Skylaris, A. A. Mostofi, P. D. Haynes, O. Dieguez,    |
 |   M. C. Payne.                                                |
 |   Phys. Rev. B 66 035119 (2002).                              |
 |                                                               |
 |  "Preconditioned iterative minimization for linear-scaling    |
 |   electronic structure calculations".                         |
 |   A. A. Mostofi, P. D. Haynes, C.-K. Skylaris, M. C. Payne.   |
 |   J. Chem. Phys. 119(17), pp.8842-8848 (2003).                |
 |                                                               |
 |  "Total-energy calculations on a real space grid with         |
 |   localized functions and a plane-wave basis".                |
 |   A. A. Mostofi, C.-K. Skylaris, P. D. Haynes, M. C. Payne.   |
 |   Comput. Phys. Commun. 147, pp.788-802 (2002).               |
 |                                                               |
 |  "Accurate kinetic energy evaluation in electronic structure  |
 |   calculations with localized functions on real space grids"  |
 |   C.-K. Skylaris, A. A. Mostofi, P. D. Haynes, C. J. Pickard, |
 |   M. C. Payne.                                                |
 |   Comput. Phys. Commun. 140, pp.315-322 (2001).               |
 |                                                               |
 |  "Accurate ionic forces and geometry optimization in linear-  |
 |   scaling density-functional theory with local orbitals"      |
 |   N. D. M. Hine, M. Robinson, P. D. Haynes, C.-K. Skylaris,   |
 |   M. C. Payne, and A. A. Mostofi.                             |
 |   Phys. Rev. B 83 195102 (2011).                              |
 |                                                               |
 +---------------------------------------------------------------+

Job started: 21-02-2020 16:36 (-0000)
 
Reading parameters from file "3.2735064_GO_manual_4x64graphite.dat" ...

WARNING: "cutoff_energy" not specified, but "psinc_spacing" specified.
         Using the latter to set the KE cutoff energy to  732.32021eV,
         thus *overriding* the default.

... done

If your calculation crashes here, before "Checking processes and threads..."
is displayed, then your stack size is insufficient.
If so, use "ulimit -s unlimited" at runtime.
You can disable this check with "check_stack_size F".

Checking processes and threads...
   Determining the default number of threads...
      No default threads set at compilation time: defaulting to 1.
      OpenMP library call suggests 4 threads.
      Hybrid MPI-OpenMP compilation detected.
      Number of MPI processes > 1.
      OMP_NUM_THREADS environment variable present and
      its value matches the one obtained from the OpenMP library call.
      Using this value as default.
      Default threads: 4
      Default applies to threads_max and threads_num_fftboxes.
      Settings in the input file override this default.
   ... done

   Running with 40 MPI processes.
   There are 10 MPI processes running on the same node as the root process.
   Each MPI process is using: 
               1 threads for simulation cell FFTs.
               1 threads for parallel FFT box operations.
               4 threads for loops over batched FFT box operations.
               4 threads in other parallel regions.
... done

Basic input checks...
Resetting ngwf_cg_rotate to TRUE for EDFT calculations
... done

Reading geometry and species blocks from file "3.2735064_GO_manual_4x64graphite.dat" ...
    
  PSINC grid spacing along a1 set to   0.511215680000a0 from input file.
  PSINC grid spacing along a2 set to   0.531284090000a0 from input file.
  PSINC grid spacing along a3 set to   0.507052730000a0 from input file.
  Number of PPD points along a3 set to 1.  This is 
  the default value, it may have been provided also in the input file.
... done
 Writing xyz coordinates to file "3.2735064_GO_manual_4x64graphite.xyz" ... done


--------------------------------------------------------------------------------
---------------------------------- INPUT FILE ----------------------------------
--------------------------------------------------------------------------------

task : singlepoint                                                              
do_properties : true                                                            
dx_format T                                                                     
edft T                                                                          
output_detail VERBOSE                                                           
write_xyz T                                                                     
xc_functional AVV10S                                                            
PSINC_SPACING 0.51121568 0.53128409 0.50705273                                  
paw T                                                                           
pdos_max_l = 2                                                                  
dos_smear  0.1 eV                                                               
popn_calculate T                                                                
PDOS_PSEUDOATOMIC T                                                             
PDOS_REDUCE_SWS F                                                               
PDOS_CONSTRUCT_BASIS F                                                          
PDOS_LOWDIN T                                                                   
PDOS_ORTH_ATOM_BLOCKS F                                                         
PDOS_LCAO_OPTIMIZE F                                                            
pdos_optados_output T                                                           
homo_plot 0                                                                     
lumo_plot 0                                                                     
homo_dens_plot -1                                                               
lumo_dens_plot -1                                                               
%BLOCK SPECIES                                                                  
C C 6 4 9.0                                                                     
%ENDBLOCK SPECIES                                                               
%BLOCK SPECIES_POT                                                              
C "~/pp/paw/c_pbe_abinit.paw"                                                   
%ENDBLOCK SPECIES_POT                                                           
%BLOCK SPECIES_ATOMIC_SET                                                       
C "SOLVE conf=2s2 2p2"                                                          
%ENDBLOCK SPECIES_ATOMIC_SET                                                    
%BLOCK LATTICE_CART                                                             
32.21  0.00  0.00                                                               
0.00 18.59  0.00                                                                
0.00  0.00 61.86                                                                
%ENDBLOCK LATTICE_CART                                                          
%BLOCK POSITIONS_ABS                                                            
C  0.00  0.00  3.09                                                             
C  0.00  0.00 15.47                                                             
C  0.00  0.00 27.84                                                             
C  0.00  0.00 40.21                                                             
C  0.00  0.00 52.58                                                             
C  0.00  4.65  3.09                                                             
C  0.00  4.65 15.47                                                             
C  0.00  4.65 27.84                                                             
C  0.00  4.65 40.21                                                             
C  0.00  4.65 52.58                                                             
C  4.03  2.32  3.09                                                             
C  4.03  2.32 15.47                                                             
C  4.03  2.32 27.84                                                             
C  4.03  2.32 40.21                                                             
C  4.03  2.32 52.58                                                             
C  8.05  0.00  3.09                                                             
C  8.05  0.00 15.47                                                             
C  8.05  0.00 27.84                                                             
C  8.05  0.00 40.21                                                             
C  8.05  0.00 52.58                                                             
C  0.00  9.30  3.09                                                             
C  0.00  9.30 15.47                                                             
C  0.00  9.30 27.84                                                             
C  0.00  9.30 40.21                                                             
C  0.00  9.30 52.58                                                             
C  4.03  6.97  3.09                                                             
C  4.03  6.97 15.47                                                             
C  4.03  6.97 27.84                                                             
C  4.03  6.97 40.21                                                             
C  4.03  6.97 52.58                                                             
C  8.05  4.65  3.09                                                             
C  8.05  4.65 15.47                                                             
C  8.05  4.65 27.84                                                             
C  8.05  4.65 40.21                                                             
C  8.05  4.65 52.58                                                             
C 12.08  2.32  3.09                                                             
C 12.08  2.32 15.47                                                             
C 12.08  2.32 27.84                                                             
C 12.08  2.32 40.21                                                             
C 12.08  2.32 52.58                                                             
C 16.10  0.00  3.09                                                             
C 16.10  0.00 15.47                                                             
C 16.10  0.00 27.84                                                             
C 16.10  0.00 40.21                                                             
C 16.10  0.00 52.58                                                             
C  0.00 13.95  3.09                                                             
C  0.00 13.95 15.47                                                             
C  0.00 13.95 27.84                                                             
C  0.00 13.95 40.21                                                             
C  0.00 13.95 52.58                                                             
C  4.03 11.62  3.09                                                             
C  4.03 11.62 15.47                                                             
C  4.03 11.62 27.84                                                             
C  4.03 11.62 40.21                                                             
C  4.03 11.62 52.58                                                             
C  8.05  9.30  3.09                                                             
C  8.05  9.30 15.47                                                             
C  8.05  9.30 27.84                                                             
C  8.05  9.30 40.21                                                             
C  8.05  9.30 52.58                                                             
C 12.08  6.97  3.09                                                             
C 12.08  6.97 15.47                                                             
C 12.08  6.97 27.84                                                             
C 12.08  6.97 40.21                                                             
C 12.08  6.97 52.58                                                             
C 16.10  4.65  3.09                                                             
C 16.10  4.65 15.47                                                             
C 16.10  4.65 27.84                                                             
C 16.10  4.65 40.21                                                             
C 16.10  4.65 52.58                                                             
C 20.13  2.32  3.09                                                             
C 20.13  2.32 15.47                                                             
C 20.13  2.32 27.84                                                             
C 20.13  2.32 40.21                                                             
C 20.13  2.32 52.58                                                             
C 24.16  0.00  3.09                                                             
C 24.16  0.00 15.47                                                             
C 24.16  0.00 27.84                                                             
C 24.16  0.00 40.21                                                             
C 24.16  0.00 52.58                                                             
C  4.03 16.27  3.09                                                             
C  4.03 16.27 15.47                                                             
C  4.03 16.27 27.84                                                             
C  4.03 16.27 40.21                                                             
C  4.03 16.27 52.58                                                             
C  8.05 13.95  3.09                                                             
C  8.05 13.95 15.47                                                             
C  8.05 13.95 27.84                                                             
C  8.05 13.95 40.21                                                             
C  8.05 13.95 52.58                                                             
C 12.08 11.62  3.09                                                             
C 12.08 11.62 15.47                                                             
C 12.08 11.62 27.84                                                             
C 12.08 11.62 40.21                                                             
C 12.08 11.62 52.58                                                             
C 16.10  9.30  3.09                                                             
C 16.10  9.30 15.47                                                             
C 16.10  9.30 27.84                                                             
C 16.10  9.30 40.21                                                             
C 16.10  9.30 52.58                                                             
C 20.13  6.97  3.09                                                             
C 20.13  6.97 15.47                                                             
C 20.13  6.97 27.84                                                             
C 20.13  6.97 40.21                                                             
C 20.13  6.97 52.58                                                             
C 24.16  4.65  3.09                                                             
C 24.16  4.65 15.47                                                             
C 24.16  4.65 27.84                                                             
C 24.16  4.65 40.21                                                             
C 24.16  4.65 52.58                                                             
C 28.18  2.32  3.09                                                             
C 28.18  2.32 15.47                                                             
C 28.18  2.32 27.84                                                             
C 28.18  2.32 40.21                                                             
C 28.18  2.32 52.58                                                             
C 12.08 16.27  3.09                                                             
C 12.08 16.27 15.47                                                             
C 12.08 16.27 27.84                                                             
C 12.08 16.27 40.21                                                             
C 12.08 16.27 52.58                                                             
C 16.10 13.95  3.09                                                             
C 16.10 13.95 15.47                                                             
C 16.10 13.95 27.84                                                             
C 16.10 13.95 40.21                                                             
C 16.10 13.95 52.58                                                             
C 20.13 11.62  3.09                                                             
C 20.13 11.62 15.47                                                             
C 20.13 11.62 27.84                                                             
C 20.13 11.62 40.21                                                             
C 20.13 11.62 52.58                                                             
C 24.16  9.30  3.09                                                             
C 24.16  9.30 15.47                                                             
C 24.16  9.30 27.84                                                             
C 24.16  9.30 40.21                                                             
C 24.16  9.30 52.58                                                             
C 28.18  6.97  3.09                                                             
C 28.18  6.97 15.47                                                             
C 28.18  6.97 27.84                                                             
C 28.18  6.97 40.21                                                             
C 28.18  6.97 52.58                                                             
C 20.13 16.27  3.09                                                             
C 20.13 16.27 15.47                                                             
C 20.13 16.27 27.84                                                             
C 20.13 16.27 40.21                                                             
C 20.13 16.27 52.58                                                             
C 24.16 13.95  3.09                                                             
C 24.16 13.95 15.47                                                             
C 24.16 13.95 27.84                                                             
C 24.16 13.95 40.21                                                             
C 24.16 13.95 52.58                                                             
C 28.18 11.62  3.09                                                             
C 28.18 11.62 15.47                                                             
C 28.18 11.62 27.84                                                             
C 28.18 11.62 40.21                                                             
C 28.18 11.62 52.58                                                             
C 28.18 16.27  3.09                                                             
C 28.18 16.27 15.47                                                             
C 28.18 16.27 27.84                                                             
C 28.18 16.27 40.21                                                             
C 28.18 16.27 52.58                                                             
C  0.00  0.00  9.28                                                             
C  0.00  0.00 21.65                                                             
C  0.00  0.00 34.02                                                             
C  0.00  0.00 46.40                                                             
C  0.00  0.00 58.77                                                             
C  0.00  4.65  9.28                                                             
C  0.00  4.65 21.65                                                             
C  0.00  4.65 34.02                                                             
C  0.00  4.65 46.40                                                             
C  0.00  4.65 58.77                                                             
C  4.03  2.32  9.28                                                             
C  4.03  2.32 21.65                                                             
C  4.03  2.32 34.02                                                             
C  4.03  2.32 46.40                                                             
C  4.03  2.32 58.77                                                             
C  8.05  0.00  9.28                                                             
C  8.05  0.00 21.65                                                             
C  8.05  0.00 34.02                                                             
C  8.05  0.00 46.40                                                             
C  8.05  0.00 58.77                                                             
C  0.00  9.30  9.28                                                             
C  0.00  9.30 21.65                                                             
C  0.00  9.30 34.02                                                             
C  0.00  9.30 46.40                                                             
C  0.00  9.30 58.77                                                             
C  4.03  6.97  9.28                                                             
C  4.03  6.97 21.65                                                             
C  4.03  6.97 34.02                                                             
C  4.03  6.97 46.40                                                             
C  4.03  6.97 58.77                                                             
C  8.05  4.65  9.28                                                             
C  8.05  4.65 21.65                                                             
C  8.05  4.65 34.02                                                             
C  8.05  4.65 46.40                                                             
C  8.05  4.65 58.77                                                             
C 12.08  2.32  9.28                                                             
C 12.08  2.32 21.65                                                             
C 12.08  2.32 34.02                                                             
C 12.08  2.32 46.40                                                             
C 12.08  2.32 58.77                                                             
C 16.10  0.00  9.28                                                             
C 16.10  0.00 21.65                                                             
C 16.10  0.00 34.02                                                             
C 16.10  0.00 46.40                                                             
C 16.10  0.00 58.77                                                             
C  0.00 13.95  9.28                                                             
C  0.00 13.95 21.65                                                             
C  0.00 13.95 34.02                                                             
C  0.00 13.95 46.40                                                             
C  0.00 13.95 58.77                                                             
C  4.03 11.62  9.28                                                             
C  4.03 11.62 21.65                                                             
C  4.03 11.62 34.02                                                             
C  4.03 11.62 46.40                                                             
C  4.03 11.62 58.77                                                             
C  8.05  9.30  9.28                                                             
C  8.05  9.30 21.65                                                             
C  8.05  9.30 34.02                                                             
C  8.05  9.30 46.40                                                             
C  8.05  9.30 58.77                                                             
C 12.08  6.97  9.28                                                             
C 12.08  6.97 21.65                                                             
C 12.08  6.97 34.02                                                             
C 12.08  6.97 46.40                                                             
C 12.08  6.97 58.77                                                             
C 16.10  4.65  9.28                                                             
C 16.10  4.65 21.65                                                             
C 16.10  4.65 34.02                                                             
C 16.10  4.65 46.40                                                             
C 16.10  4.65 58.77                                                             
C 20.13  2.32  9.28                                                             
C 20.13  2.32 21.65                                                             
C 20.13  2.32 34.02                                                             
C 20.13  2.32 46.40                                                             
C 20.13  2.32 58.77                                                             
C 24.16  0.00  9.28                                                             
C 24.16  0.00 21.65                                                             
C 24.16  0.00 34.02                                                             
C 24.16  0.00 46.40                                                             
C 24.16  0.00 58.77                                                             
C  4.03 16.27  9.28                                                             
C  4.03 16.27 21.65                                                             
C  4.03 16.27 34.02                                                             
C  4.03 16.27 46.40                                                             
C  4.03 16.27 58.77                                                             
C  8.05 13.95  9.28                                                             
C  8.05 13.95 21.65                                                             
C  8.05 13.95 34.02                                                             
C  8.05 13.95 46.40                                                             
C  8.05 13.95 58.77                                                             
C 12.08 11.62  9.28                                                             
C 12.08 11.62 21.65                                                             
C 12.08 11.62 34.02                                                             
C 12.08 11.62 46.40                                                             
C 12.08 11.62 58.77                                                             
C 16.10  9.30  9.28                                                             
C 16.10  9.30 21.65                                                             
C 16.10  9.30 34.02                                                             
C 16.10  9.30 46.40                                                             
C 16.10  9.30 58.77                                                             
C 20.13  6.97  9.28                                                             
C 20.13  6.97 21.65                                                             
C 20.13  6.97 34.02                                                             
C 20.13  6.97 46.40                                                             
C 20.13  6.97 58.77                                                             
C 24.16  4.65  9.28                                                             
C 24.16  4.65 21.65                                                             
C 24.16  4.65 34.02                                                             
C 24.16  4.65 46.40                                                             
C 24.16  4.65 58.77                                                             
C 28.18  2.32  9.28                                                             
C 28.18  2.32 21.65                                                             
C 28.18  2.32 34.02                                                             
C 28.18  2.32 46.40                                                             
C 28.18  2.32 58.77                                                             
C 12.08 16.27  9.28                                                             
C 12.08 16.27 21.65                                                             
C 12.08 16.27 34.02                                                             
C 12.08 16.27 46.40                                                             
C 12.08 16.27 58.77                                                             
C 16.10 13.95  9.28                                                             
C 16.10 13.95 21.65                                                             
C 16.10 13.95 34.02                                                             
C 16.10 13.95 46.40                                                             
C 16.10 13.95 58.77                                                             
C 20.13 11.62  9.28                                                             
C 20.13 11.62 21.65                                                             
C 20.13 11.62 34.02                                                             
C 20.13 11.62 46.40                                                             
C 20.13 11.62 58.77                                                             
C 24.16  9.30  9.28                                                             
C 24.16  9.30 21.65                                                             
C 24.16  9.30 34.02                                                             
C 24.16  9.30 46.40                                                             
C 24.16  9.30 58.77                                                             
C 28.18  6.97  9.28                                                             
C 28.18  6.97 21.65                                                             
C 28.18  6.97 34.02                                                             
C 28.18  6.97 46.40                                                             
C 28.18  6.97 58.77                                                             
C 20.13 16.27  9.28                                                             
C 20.13 16.27 21.65                                                             
C 20.13 16.27 34.02                                                             
C 20.13 16.27 46.40                                                             
C 20.13 16.27 58.77                                                             
C 24.16 13.95  9.28                                                             
C 24.16 13.95 21.65                                                             
C 24.16 13.95 34.02                                                             
C 24.16 13.95 46.40                                                             
C 24.16 13.95 58.77                                                             
C 28.18 11.62  9.28                                                             
C 28.18 11.62 21.65                                                             
C 28.18 11.62 34.02                                                             
C 28.18 11.62 46.40                                                             
C 28.18 11.62 58.77                                                             
C 28.18 16.27  9.28                                                             
C 28.18 16.27 21.65                                                             
C 28.18 16.27 34.02                                                             
C 28.18 16.27 46.40                                                             
C 28.18 16.27 58.77                                                             
C  1.34  2.32  3.09                                                             
C  1.34  2.32 15.47                                                             
C  1.34  2.32 27.84                                                             
C  1.34  2.32 40.21                                                             
C  1.34  2.32 52.58                                                             
C  5.37  0.00  3.09                                                             
C  5.37  0.00 15.47                                                             
C  5.37  0.00 27.84                                                             
C  5.37  0.00 40.21                                                             
C  5.37  0.00 52.58                                                             
C  1.34  6.97  3.09                                                             
C  1.34  6.97 15.47                                                             
C  1.34  6.97 27.84                                                             
C  1.34  6.97 40.21                                                             
C  1.34  6.97 52.58                                                             
C  5.37  4.65  3.09                                                             
C  5.37  4.65 15.47                                                             
C  5.37  4.65 27.84                                                             
C  5.37  4.65 40.21                                                             
C  5.37  4.65 52.58                                                             
C  9.39  2.32  3.09                                                             
C  9.39  2.32 15.47                                                             
C  9.39  2.32 27.84                                                             
C  9.39  2.32 40.21                                                             
C  9.39  2.32 52.58                                                             
C 13.42  0.00  3.09                                                             
C 13.42  0.00 15.47                                                             
C 13.42  0.00 27.84                                                             
C 13.42  0.00 40.21                                                             
C 13.42  0.00 52.58                                                             
C  1.34 11.62  3.09                                                             
C  1.34 11.62 15.47                                                             
C  1.34 11.62 27.84                                                             
C  1.34 11.62 40.21                                                             
C  1.34 11.62 52.58                                                             
C  5.37  9.30  3.09                                                             
C  5.37  9.30 15.47                                                             
C  5.37  9.30 27.84                                                             
C  5.37  9.30 40.21                                                             
C  5.37  9.30 52.58                                                             
C  9.39  6.97  3.09                                                             
C  9.39  6.97 15.47                                                             
C  9.39  6.97 27.84                                                             
C  9.39  6.97 40.21                                                             
C  9.39  6.97 52.58                                                             
C 13.42  4.65  3.09                                                             
C 13.42  4.65 15.47                                                             
C 13.42  4.65 27.84                                                             
C 13.42  4.65 40.21                                                             
C 13.42  4.65 52.58                                                             
C 17.45  2.32  3.09                                                             
C 17.45  2.32 15.47                                                             
C 17.45  2.32 27.84                                                             
C 17.45  2.32 40.21                                                             
C 17.45  2.32 52.58                                                             
C 21.47  0.00  3.09                                                             
C 21.47  0.00 15.47                                                             
C 21.47  0.00 27.84                                                             
C 21.47  0.00 40.21                                                             
C 21.47  0.00 52.58                                                             
C  1.34 16.27  3.09                                                             
C  1.34 16.27 15.47                                                             
C  1.34 16.27 27.84                                                             
C  1.34 16.27 40.21                                                             
C  1.34 16.27 52.58                                                             
C  5.37 13.95  3.09                                                             
C  5.37 13.95 15.47                                                             
C  5.37 13.95 27.84                                                             
C  5.37 13.95 40.21                                                             
C  5.37 13.95 52.58                                                             
C  9.39 11.62  3.09                                                             
C  9.39 11.62 15.47                                                             
C  9.39 11.62 27.84                                                             
C  9.39 11.62 40.21                                                             
C  9.39 11.62 52.58                                                             
C 13.42  9.30  3.09                                                             
C 13.42  9.30 15.47                                                             
C 13.42  9.30 27.84                                                             
C 13.42  9.30 40.21                                                             
C 13.42  9.30 52.58                                                             
C 17.45  6.97  3.09                                                             
C 17.45  6.97 15.47                                                             
C 17.45  6.97 27.84                                                             
C 17.45  6.97 40.21                                                             
C 17.45  6.97 52.58                                                             
C 21.47  4.65  3.09                                                             
C 21.47  4.65 15.47                                                             
C 21.47  4.65 27.84                                                             
C 21.47  4.65 40.21                                                             
C 21.47  4.65 52.58                                                             
C 25.50  2.32  3.09                                                             
C 25.50  2.32 15.47                                                             
C 25.50  2.32 27.84                                                             
C 25.50  2.32 40.21                                                             
C 25.50  2.32 52.58                                                             
C 29.52  0.00  3.09                                                             
C 29.52  0.00 15.47                                                             
C 29.52  0.00 27.84                                                             
C 29.52  0.00 40.21                                                             
C 29.52  0.00 52.58                                                             
C  9.39 16.27  3.09                                                             
C  9.39 16.27 15.47                                                             
C  9.39 16.27 27.84                                                             
C  9.39 16.27 40.21                                                             
C  9.39 16.27 52.58                                                             
C 13.42 13.95  3.09                                                             
C 13.42 13.95 15.47                                                             
C 13.42 13.95 27.84                                                             
C 13.42 13.95 40.21                                                             
C 13.42 13.95 52.58                                                             
C 17.45 11.62  3.09                                                             
C 17.45 11.62 15.47                                                             
C 17.45 11.62 27.84                                                             
C 17.45 11.62 40.21                                                             
C 17.45 11.62 52.58                                                             
C 21.47  9.30  3.09                                                             
C 21.47  9.30 15.47                                                             
C 21.47  9.30 27.84                                                             
C 21.47  9.30 40.21                                                             
C 21.47  9.30 52.58                                                             
C 25.50  6.97  3.09                                                             
C 25.50  6.97 15.47                                                             
C 25.50  6.97 27.84                                                             
C 25.50  6.97 40.21                                                             
C 25.50  6.97 52.58                                                             
C 29.52  4.65  3.09                                                             
C 29.52  4.65 15.47                                                             
C 29.52  4.65 27.84                                                             
C 29.52  4.65 40.21                                                             
C 29.52  4.65 52.58                                                             
C 17.45 16.27  3.09                                                             
C 17.45 16.27 15.47                                                             
C 17.45 16.27 27.84                                                             
C 17.45 16.27 40.21                                                             
C 17.45 16.27 52.58                                                             
C 21.47 13.95  3.09                                                             
C 21.47 13.95 15.47                                                             
C 21.47 13.95 27.84                                                             
C 21.47 13.95 40.21                                                             
C 21.47 13.95 52.58                                                             
C 25.50 11.62  3.09                                                             
C 25.50 11.62 15.47                                                             
C 25.50 11.62 27.84                                                             
C 25.50 11.62 40.21                                                             
C 25.50 11.62 52.58                                                             
C 29.52  9.30  3.09                                                             
C 29.52  9.30 15.47                                                             
C 29.52  9.30 27.84                                                             
C 29.52  9.30 40.21                                                             
C 29.52  9.30 52.58                                                             
C 25.50 16.27  3.09                                                             
C 25.50 16.27 15.47                                                             
C 25.50 16.27 27.84                                                             
C 25.50 16.27 40.21                                                             
C 25.50 16.27 52.58                                                             
C 29.52 13.95  3.09                                                             
C 29.52 13.95 15.47                                                             
C 29.52 13.95 27.84                                                             
C 29.52 13.95 40.21                                                             
C 29.52 13.95 52.58                                                             
C  2.68  0.00  9.28                                                             
C  2.68  0.00 21.65                                                             
C  2.68  0.00 34.02                                                             
C  2.68  0.00 46.40                                                             
C  2.68  0.00 58.77                                                             
C  2.68  4.65  9.28                                                             
C  2.68  4.65 21.65                                                             
C  2.68  4.65 34.02                                                             
C  2.68  4.65 46.40                                                             
C  2.68  4.65 58.77                                                             
C  6.71  2.32  9.28                                                             
C  6.71  2.32 21.65                                                             
C  6.71  2.32 34.02                                                             
C  6.71  2.32 46.40                                                             
C  6.71  2.32 58.77                                                             
C 10.74  0.00  9.28                                                             
C 10.74  0.00 21.65                                                             
C 10.74  0.00 34.02                                                             
C 10.74  0.00 46.40                                                             
C 10.74  0.00 58.77                                                             
C  2.68  9.30  9.28                                                             
C  2.68  9.30 21.65                                                             
C  2.68  9.30 34.02                                                             
C  2.68  9.30 46.40                                                             
C  2.68  9.30 58.77                                                             
C  6.71  6.97  9.28                                                             
C  6.71  6.97 21.65                                                             
C  6.71  6.97 34.02                                                             
C  6.71  6.97 46.40                                                             
C  6.71  6.97 58.77                                                             
C 10.74  4.65  9.28                                                             
C 10.74  4.65 21.65                                                             
C 10.74  4.65 34.02                                                             
C 10.74  4.65 46.40                                                             
C 10.74  4.65 58.77                                                             
C 14.76  2.32  9.28                                                             
C 14.76  2.32 21.65                                                             
C 14.76  2.32 34.02                                                             
C 14.76  2.32 46.40                                                             
C 14.76  2.32 58.77                                                             
C 18.79  0.00  9.28                                                             
C 18.79  0.00 21.65                                                             
C 18.79  0.00 34.02                                                             
C 18.79  0.00 46.40                                                             
C 18.79  0.00 58.77                                                             
C  2.68 13.95  9.28                                                             
C  2.68 13.95 21.65                                                             
C  2.68 13.95 34.02                                                             
C  2.68 13.95 46.40                                                             
C  2.68 13.95 58.77                                                             
C  6.71 11.62  9.28                                                             
C  6.71 11.62 21.65                                                             
C  6.71 11.62 34.02                                                             
C  6.71 11.62 46.40                                                             
C  6.71 11.62 58.77                                                             
C 10.74  9.30  9.28                                                             
C 10.74  9.30 21.65                                                             
C 10.74  9.30 34.02                                                             
C 10.74  9.30 46.40                                                             
C 10.74  9.30 58.77                                                             
C 14.76  6.97  9.28                                                             
C 14.76  6.97 21.65                                                             
C 14.76  6.97 34.02                                                             
C 14.76  6.97 46.40                                                             
C 14.76  6.97 58.77                                                             
C 18.79  4.65  9.28                                                             
C 18.79  4.65 21.65                                                             
C 18.79  4.65 34.02                                                             
C 18.79  4.65 46.40                                                             
C 18.79  4.65 58.77                                                             
C 22.81  2.32  9.28                                                             
C 22.81  2.32 21.65                                                             
C 22.81  2.32 34.02                                                             
C 22.81  2.32 46.40                                                             
C 22.81  2.32 58.77                                                             
C 26.84  0.00  9.28                                                             
C 26.84  0.00 21.65                                                             
C 26.84  0.00 34.02                                                             
C 26.84  0.00 46.40                                                             
C 26.84  0.00 58.77                                                             
C  6.71 16.27  9.28                                                             
C  6.71 16.27 21.65                                                             
C  6.71 16.27 34.02                                                             
C  6.71 16.27 46.40                                                             
C  6.71 16.27 58.77                                                             
C 10.74 13.95  9.28                                                             
C 10.74 13.95 21.65                                                             
C 10.74 13.95 34.02                                                             
C 10.74 13.95 46.40                                                             
C 10.74 13.95 58.77                                                             
C 14.76 11.62  9.28                                                             
C 14.76 11.62 21.65                                                             
C 14.76 11.62 34.02                                                             
C 14.76 11.62 46.40                                                             
C 14.76 11.62 58.77                                                             
C 18.79  9.30  9.28                                                             
C 18.79  9.30 21.65                                                             
C 18.79  9.30 34.02                                                             
C 18.79  9.30 46.40                                                             
C 18.79  9.30 58.77                                                             
C 22.81  6.97  9.28                                                             
C 22.81  6.97 21.65                                                             
C 22.81  6.97 34.02                                                             
C 22.81  6.97 46.40                                                             
C 22.81  6.97 58.77                                                             
C 26.84  4.65  9.28                                                             
C 26.84  4.65 21.65                                                             
C 26.84  4.65 34.02                                                             
C 26.84  4.65 46.40                                                             
C 26.84  4.65 58.77                                                             
C 30.86  2.32  9.28                                                             
C 30.86  2.32 21.65                                                             
C 30.86  2.32 34.02                                                             
C 30.86  2.32 46.40                                                             
C 30.86  2.32 58.77                                                             
C 14.76 16.27  9.28                                                             
C 14.76 16.27 21.65                                                             
C 14.76 16.27 34.02                                                             
C 14.76 16.27 46.40                                                             
C 14.76 16.27 58.77                                                             
C 18.79 13.95  9.28                                                             
C 18.79 13.95 21.65                                                             
C 18.79 13.95 34.02                                                             
C 18.79 13.95 46.40                                                             
C 18.79 13.95 58.77                                                             
C 22.81 11.62  9.28                                                             
C 22.81 11.62 21.65                                                             
C 22.81 11.62 34.02                                                             
C 22.81 11.62 46.40                                                             
C 22.81 11.62 58.77                                                             
C 26.84  9.30  9.28                                                             
C 26.84  9.30 21.65                                                             
C 26.84  9.30 34.02                                                             
C 26.84  9.30 46.40                                                             
C 26.84  9.30 58.77                                                             
C 30.86  6.97  9.28                                                             
C 30.86  6.97 21.65                                                             
C 30.86  6.97 34.02                                                             
C 30.86  6.97 46.40                                                             
C 30.86  6.97 58.77                                                             
C 22.81 16.27  9.28                                                             
C 22.81 16.27 21.65                                                             
C 22.81 16.27 34.02                                                             
C 22.81 16.27 46.40                                                             
C 22.81 16.27 58.77                                                             
C 26.84 13.95  9.28                                                             
C 26.84 13.95 21.65                                                             
C 26.84 13.95 34.02                                                             
C 26.84 13.95 46.40                                                             
C 26.84 13.95 58.77                                                             
C 30.86 11.62  9.28                                                             
C 30.86 11.62 21.65                                                             
C 30.86 11.62 34.02                                                             
C 30.86 11.62 46.40                                                             
C 30.86 11.62 58.77                                                             
C 30.86 16.27  9.28                                                             
C 30.86 16.27 21.65                                                             
C 30.86 16.27 34.02                                                             
C 30.86 16.27 46.40                                                             
C 30.86 16.27 58.77                                                             
%ENDBLOCK POSITIONS_ABS                                                         

--------------------------------------------------------------------------------
-------------------------------- END INPUT FILE --------------------------------
--------------------------------------------------------------------------------


 
<<<<<<<<<<<<<<<<<<<<<<<<<<<<<<<<< Full system >>>>>>>>>>>>>>>>>>>>>>>>>>>>>>>>>>
<<<<<<<<<<<<<<<<<<<<<<<<<<< PAW Dataset information >>>>>>>>>>>>>>>>>>>>>>>>>>>
File: ~/pp/paw/c_pbe_abinit.paw; rc = 1.25 bohr; shape type =  3; rshape = 1.25 bohr;
  Atomic number:  6;  ionic charge:  4.000000
    Partial Wave 1: l = 0
    Partial Wave 2: l = 0
    Partial Wave 3: l = 1
    Partial Wave 4: l = 1
  Core charge supplied for Nonlinear Core Corrections
<<<<<<<<<<<<<<<<<<<<<<<<<<<<<<<<<<<<<<< >>>>>>>>>>>>>>>>>>>>>>>>>>>>>>>>>>>>>>>

-------------------------- Atom counting information ---------------------------
Symbol    Natoms    Nngwfs    Nprojs
  C        640      2560      5120
.......   ......    ......    ......
Totals:    640      2560      5120
--------------------------------------------------------------------------------

=============================== PSINC grid sizes ===============================
                      Simulation cell:   63 x  35 x 122
                              FFT-box:   63 x  35 x 117
                                  PPD:    7 x   5 x   1
Grid space d1=  0.511269841270a0 (KE cutoff=  29.06054Eh = 790.77748eV)
Grid space d2=  0.531142857143a0 (KE cutoff=  26.92659Eh = 732.70972eV)
Grid space d3=  0.507049180328a0 (KE cutoff=  29.54635Eh = 803.99708eV)
================================================================================
  
WARNING in cell_grid_distribute:
Average of less than one 23-slab per node, so workload cannot be
equally balanced between nodes.

********************* Fourier parallelisation information **********************
       Coarse grid (whole simulation cell) dimensions:     63    35   122
          Real-space ('12') slabs/node (min max mean):      3     4     3
         Recip-space ('23') slabs/node (min max mean):      0     1     0
********************************************************************************

********************* Fourier parallelisation information **********************
       Double grid (whole simulation cell) dimensions:    126    70   244
          Real-space ('12') slabs/node (min max mean):      6     7     6
         Recip-space ('23') slabs/node (min max mean):      1     2     1
********************************************************************************

Atom SCF Calculation for C  : Z (AE atom) =   6 : Z (PS atom) =   4
Config String: 2s2 2p2
Orbitals (num,occ):  2     2.00 2.00
Orbitals   (num,l):  2        0    1
Real-space Grid (nr,dr,rmax): 1293    0.0069659443    9.0000000000
Spherical Bessel Basis (nsws,lmax,cutoff):   37    2  161.4736382572
Confining potential (l,width,scale):  0    3.0000000000  100.0000000000
Confining potential (l,width,scale):  1    3.0000000000  100.0000000000
  1         -5.4129360987   -1.2444937266    4.5135257941   -1.5420271367
  2         -5.3444202281   -1.3377187790    4.4131101426   -1.5071921700
  3         -5.3525226456   -1.3566567794    4.3924752240   -1.5004938544
  4         -5.3561013121   -1.3623552809    4.3862114699   -1.4986199617
  5         -5.3580093800   -1.3653574582    4.3828991843   -1.4976654093
  6         -5.3590276761   -1.3669475005    4.3811409016   -1.4971696795
  7         -5.3595688314   -1.3677934914    4.3802040659   -1.4969088858
  8         -5.3598556216   -1.3682449178    4.3797036984   -1.4967706290
  9         -5.3600074081   -1.3684862338    4.3794360452   -1.4966970063
 10         -5.3600877081   -1.3686153812    4.3792927313   -1.4966576988
 11         -5.3601301919   -1.3686845537    4.3792159394   -1.4966366788
 12         -5.3601526758   -1.3687216261    4.3791747687   -1.4966254262
 13         -5.3601645804   -1.3687415049    4.3791526850   -1.4966193980
 14         -5.3601708871   -1.3687521691    4.3791408341   -1.4966161667
 15         -5.3601742301   -1.3687578926    4.3791344719   -1.4966144337
 16         -5.3601760032   -1.3687609656    4.3791310549   -1.4966135039
 17         -5.3601769442   -1.3687626162    4.3791292190   -1.4966130048
 18         -5.3601774440   -1.3687635032    4.3791282322   -1.4966127369
 19         -5.3601777096   -1.3687639799    4.3791277016   -1.4966125929
 20         -5.3601778508   -1.3687642363    4.3791274162   -1.4966125155
 21         -5.3601779259   -1.3687643743    4.3791272626   -1.4966124740
Atom SCF converged after  21 iterations to a total energy of     -5.36017793

Determining parallel strategy ...
... using space-filling curve
... NGWF load balancing: max     64;  min     64;  average     64
... Projector load balancing: max    128;  min    128;  average    128
... done
Calculating Ewald energy ...
              Ewald: real-space energy =    9513.649447
        Ewald: reciprocal-space energy =       0.059796
         Ewald: (sum_charge)**2 Energy =   11406.785290
         Ewald: (sum_charge**2) Energy =     901.785557
                          Ewald Energy =   -2794.861604
Basis initialisation ...... NGWF spheres initialised
... Projector spheres initialised
... NGWF tight boxes initialised
... Projector tight boxes initialised
... Tight-boxes gathered
... NGWF basis size (local,global):     694868  27907776
... PAW projector initialisation
... done

============================= Charge Augmentation ==============================
                           Aug box size:   11 x  11 x  11
================================================================================

========================== Sparse matrix information ===========================
                        Overlap matrix filling:  44.38%
                        Density kernel filling: 100.00%
              NGWF-Proj overlap matrix filling:  13.12%
                    Aug Overlap matrix filling:  47.81%
                    Hamiltonian matrix filling:  47.81%
                  NGWF diagonal matrix filling:   0.16%
                             KS matrix filling: 100.00% 
                           KSKS matrix filling: 100.00% 
================================================================================

Sparse matrix initialisation ... done
NGWF initialisation ...... done
============ Calculation of NGWF S^-1 using Hotelling algorithm ================ 
         Iteration  |  Frobenius norm and Maximum abs value    (of I-S*S_n^-1)   
               1       0.49194744E+02     0.97780317E+00
               2       0.48058793E+02     0.95738147E+00
               3       0.46327395E+02     0.92091085E+00
               4       0.44043919E+02     0.86081070E+00
               5       0.41285358E+02     0.77113716E+00
               6       0.38034679E+02     0.68871933E+00
               7       0.34569490E+02     0.63967752E+00
               8       0.31274383E+02     0.59949462E+00
               9       0.27897322E+02     0.55945577E+00
              10       0.23736895E+02     0.49932754E+00
              11       0.18272517E+02     0.40135612E+00
              12       0.11670975E+02     0.26405509E+00
              13       0.53747068E+01     0.12048784E+00
              14       0.13553609E+01     0.28287894E-01
              15       0.10253824E+00     0.18909347E-02
              16       0.72406611E-03     0.10662616E-04
              17       0.52875040E-07     0.49636162E-09
              18       0.87937062E-13     0.46629367E-14
================================================================================
Calculating core density ...
================================= Core Density =================================
               Core den box size:   21 x  21 x  21
================================================================================
 ... done
Up spin density kernel initialisation ...... done

Writing density kernel to file "3.2735064_GO_manual_4x64graphite.dkn" ... done

>>> Optimising kernel for current NGWFs:

--------------------------- Ensemble-DFT optimisation --------------------------
Running ScaLAPACK on   40 processor(s).

--------------------------------------------------------------------------------
  Iter                              Commutator    Free_energy(A=E-TS)     DeltaA
#    0                          0.000044802852   -3618.96022276064195  -3.62E+03

Step                       =       0.381966011250
Energy                     =   -3618.960189184495
Entropy (-TS)              =      -0.000033576095
Free energy (A=E-TS)       =   -3618.960222760642
Est. 0K Energy 0.5*(E+A)   =   -3618.960205972568
Residual Non-orthogonality =       0.000000000000
Residual N_electrons       =      -0.000000000052

Spin          Integrated_Ne            Fermi_level     Delta_Fermi_level
   1      2560.000000000228         0.228774493798              2.29E-01

                           Spin 1          
     Orb      H-eigenvalues     Occupancies
       1 |    -0.4979238973    1.0000000000 | 
                          ------
    1276 |     0.1952415713    0.9999748055 | 
    1277 |     0.1958478410    0.9999694897 | 
    1278 |     0.1958659035    0.9999693152 | 
    1279 |     0.1963058660    0.9999647420 | 
    1280 |     0.1969202696    0.9999571931 | 
                 - Gap at zero temperature -
    1281 |     0.2631666539    0.0000192076 | 
    1282 |     0.2631850803    0.0000190962 | 
    1283 |     0.2633097910    0.0000183588 | 
    1284 |     0.2633852120    0.0000179267 | 
    1285 |     0.2634005353    0.0000178402 | 
                          ------
    2560 |     1.0701341314    0.0000000000 | 

                       |  Abs_value |  Threshold | Converged
     Delta_Free_energy |   3.62E+03 |   1.00E-06 |        No
     Delta_Energy      |   3.62E+03 |   1.00E-04 |        No
     Delta_Entropy     |   3.36E-05 |   1.00E-04 |       Yes
     Commutator        |   4.48E-05 |   1.00E-05 |        No
     Delta_Fermi_level |   2.29E-01 |   1.00E-03 |        No

  Line search of the free energy minimum:
  Step_type        Step             Free_energy   Predicted_free_energy
.   Initial    0.000000    -3618.96022276064195
.    Trial1    0.381966    -3618.96245750620074
.    Trial2    0.618034    -3618.96230748141306
. Quadratic    0.469722    -3618.96253830698470    -3618.96253832879256

--------------------------------------------------------------------------------
  Iter                              Commutator    Free_energy(A=E-TS)     DeltaA
#    1                          0.000022806856   -3618.96253830698470  -2.32E-03

Step                       =       0.469722432505
Energy                     =   -3618.962504317040
Entropy (-TS)              =      -0.000033989897
Free energy (A=E-TS)       =   -3618.962538306985
Est. 0K Energy 0.5*(E+A)   =   -3618.962521312013
Residual Non-orthogonality =       0.000000000000
Residual N_electrons       =      -0.000000000048

Spin          Integrated_Ne            Fermi_level     Delta_Fermi_level
   1      2560.000000000210         0.229393686964              6.19E-04

                           Spin 1          
     Orb      H-eigenvalues     Occupancies
       1 |    -0.4970905797    1.0000000000 | 
                          ------
    1276 |     0.1959841014    0.9999738049 | 
    1277 |     0.1964465622    0.9999696863 | 
    1278 |     0.1964756169    0.9999694069 | 
    1279 |     0.1970640929    0.9999631596 | 
    1280 |     0.1975461557    0.9999571026 | 
                 - Gap at zero temperature -
    1281 |     0.2637242583    0.0000195848 | 
    1282 |     0.2637622095    0.0000193515 | 
    1283 |     0.2638753122    0.0000186726 | 
    1284 |     0.2639163112    0.0000184324 | 
    1285 |     0.2639573108    0.0000181953 | 
                          ------
    2560 |     1.0720044208    0.0000000000 | 

                       |  Abs_value |  Threshold | Converged
     Delta_Free_energy |   2.32E-03 |   1.00E-06 |        No
     Delta_Energy      |   2.32E-03 |   1.00E-04 |        No
     Delta_Entropy     |   4.14E-07 |   1.00E-04 |       Yes
     Commutator        |   2.28E-05 |   1.00E-05 |        No
     Delta_Fermi_level |   6.19E-04 |   1.00E-03 |       Yes

  Line search of the free energy minimum:
  Step_type        Step             Free_energy   Predicted_free_energy
.   Initial    0.000000    -3618.96253830698470
.    Trial1    0.469722    -3618.96286573705038
.    Trial2    0.672270    -3618.96230113485035
. Quadratic    0.302103    -3618.96301141537742    -3618.96301136727516

--------------------------------------------------------------------------------
  Iter                              Commutator    Free_energy(A=E-TS)     DeltaA
#    2                          0.000014639922   -3618.96301141537742  -4.73E-04

Step                       =       0.302103450614
Energy                     =   -3618.962977402168
Entropy (-TS)              =      -0.000034013738
Free energy (A=E-TS)       =   -3618.963011415377
Est. 0K Energy 0.5*(E+A)   =   -3618.962994408773
Residual Non-orthogonality =       0.000000000000
Residual N_electrons       =       0.000000000528

Spin          Integrated_Ne            Fermi_level     Delta_Fermi_level
   1      2559.999999997699         0.229554979389              1.61E-04

                           Spin 1          
     Orb      H-eigenvalues     Occupancies
       1 |    -0.4968271613    1.0000000000 | 
                          ------
    1276 |     0.1961299192    0.9999739326 | 
    1277 |     0.1966256776    0.9999695152 | 
    1278 |     0.1966581201    0.9999692013 | 
    1279 |     0.1972022686    0.9999634275 | 
    1280 |     0.1977208520    0.9999569206 | 
                 - Gap at zero temperature -
    1281 |     0.2638879719    0.0000195698 | 
    1282 |     0.2639287663    0.0000193194 | 
    1283 |     0.2640407973    0.0000186479 | 
    1284 |     0.2640893440    0.0000183642 | 
    1285 |     0.2641338718    0.0000181078 | 
                          ------
    2560 |     1.0726092473    0.0000000000 | 

                       |  Abs_value |  Threshold | Converged
     Delta_Free_energy |   4.73E-04 |   1.00E-06 |        No
     Delta_Energy      |   4.73E-04 |   1.00E-04 |        No
     Delta_Entropy     |   2.38E-08 |   1.00E-04 |       Yes
     Commutator        |   1.46E-05 |   1.00E-05 |        No
     Delta_Fermi_level |   1.61E-04 |   1.00E-03 |       Yes

  Line search of the free energy minimum:
  Step_type        Step             Free_energy   Predicted_free_energy
.   Initial    0.000000    -3618.96301141537742
.    Trial1    0.302103    -3618.96319208981822
.    Trial2    0.568676    -3618.96300159749944
. Quadratic    0.280598    -3618.96319315679011    -3618.96319315731307

--------------------------------------------------------------------------------
  Iter                              Commutator    Free_energy(A=E-TS)     DeltaA
#    3                          0.000010128951   -3618.96319315679011  -1.82E-04

Step                       =       0.280598397050
Energy                     =   -3618.963159110529
Entropy (-TS)              =      -0.000034046057
Free energy (A=E-TS)       =   -3618.963193156790
Est. 0K Energy 0.5*(E+A)   =   -3618.963176133660
Residual Non-orthogonality =       0.000000000000
Residual N_electrons       =      -0.000000000204

Spin          Integrated_Ne            Fermi_level     Delta_Fermi_level
   1      2560.000000000890         0.229661738926              1.07E-04

                           Spin 1          
     Orb      H-eigenvalues     Occupancies
       1 |    -0.4966530792    1.0000000000 | 
                          ------
    1276 |     0.1962384604    0.9999739179 | 
    1277 |     0.1967373381    0.9999694680 | 
    1278 |     0.1967716724    0.9999691352 | 
    1279 |     0.1973086975    0.9999634314 | 
    1280 |     0.1978322905    0.9999568569 | 
                 - Gap at zero temperature -
    1281 |     0.2639912744    0.0000195912 | 
    1282 |     0.2640334964    0.0000193317 | 
    1283 |     0.2641438605    0.0000186696 | 
    1284 |     0.2641951647    0.0000183696 | 
    1285 |     0.2642388466    0.0000181180 | 
                          ------
    2560 |     1.0730084883    0.0000000000 | 

                       |  Abs_value |  Threshold | Converged
     Delta_Free_energy |   1.82E-04 |   1.00E-06 |        No
     Delta_Energy      |   1.82E-04 |   1.00E-04 |        No
     Delta_Entropy     |   3.23E-08 |   1.00E-04 |       Yes
     Commutator        |   1.01E-05 |   1.00E-05 |        No
     Delta_Fermi_level |   1.07E-04 |   1.00E-03 |       Yes

  Line search of the free energy minimum:
  Step_type        Step             Free_energy   Predicted_free_energy
.   Initial    0.000000    -3618.96319315679011
.    Trial1    0.280598    -3618.96327897005176
.    Trial2    0.555385    -3618.96320063472513
. Quadratic    0.284020    -3618.96327898260870    -3618.96327898250956

--------------------------------------------------------------------------------
  Iter                              Commutator    Free_energy(A=E-TS)     DeltaA
#    4                          0.000007326420   -3618.96327898260870  -8.58E-05

Step                       =       0.284020271184
Energy                     =   -3618.963244907524
Entropy (-TS)              =      -0.000034074742
Free energy (A=E-TS)       =   -3618.963278982609
[...]
 C   160 -- C   385       -0.10      5.37000
 C   159 -- C   384       -0.10      5.37000
 C   158 -- C   383       -0.10      5.37000
 C   157 -- C   382       -0.10      5.37000
 C   156 -- C   381       -0.10      5.37000
 C   155 -- C   355       -0.10      5.37000
 C   154 -- C   354       -0.10      5.37000
 C   153 -- C   353       -0.10      5.37000
 C   152 -- C   352       -0.10      5.37000
 C   151 -- C   351       -0.10      5.37000
 C   140 -- C   335       -0.10      5.37000
 C   139 -- C   334       -0.10      5.37000
 C   138 -- C   333       -0.10      5.37000
 C   137 -- C   332       -0.10      5.37000
 C   136 -- C   331       -0.10      5.37000
 C   115 -- C   325       -0.10      5.37000
 C   114 -- C   324       -0.10      5.37000
 C   113 -- C   323       -0.10      5.37000
 C   112 -- C   322       -0.10      5.37000
 C   111 -- C   321       -0.10      5.37000
 C   219 -- C   569       -0.10      5.37202
 C   218 -- C   568       -0.10      5.37202
 C   217 -- C   567       -0.10      5.37202
 C   216 -- C   566       -0.10      5.37202
 C   250 -- C   540       -0.10      5.37202
 C   249 -- C   539       -0.10      5.37202
 C   248 -- C   538       -0.10      5.37202
 C   247 -- C   537       -0.10      5.37202
 C   246 -- C   536       -0.10      5.37202
 C   220 -- C   570       -0.10      5.37202
 C   285 -- C   580       -0.10      5.37202
 C   284 -- C   579       -0.10      5.37202
 C   283 -- C   578       -0.10      5.37202
 C   282 -- C   577       -0.10      5.37202
 C   281 -- C   576       -0.10      5.37202
 C   260 -- C   605       -0.10      5.37202
 C   259 -- C   604       -0.10      5.37202
 C   258 -- C   603       -0.10      5.37202
 C   257 -- C   602       -0.10      5.37202
 C   256 -- C   601       -0.10      5.37202
 C   220 -- C   515       -0.10      5.37202
 C   219 -- C   514       -0.10      5.37202
 C   218 -- C   513       -0.10      5.37202
 C   217 -- C   512       -0.10      5.37202
 C   216 -- C   511       -0.10      5.37202
 C   195 -- C   540       -0.10      5.37202
 C   195 -- C   500       -0.10      5.37202
 C   194 -- C   539       -0.10      5.37202
 C   194 -- C   499       -0.10      5.37202
 C   193 -- C   538       -0.10      5.37202
 C   193 -- C   498       -0.10      5.37202
 C   192 -- C   537       -0.10      5.37202
 C   192 -- C   497       -0.10      5.37202
 C   191 -- C   536       -0.10      5.37202
 C   191 -- C   496       -0.10      5.37202
 C   180 -- C   515       -0.10      5.37202
 C   179 -- C   514       -0.10      5.37202
 C   178 -- C   513       -0.10      5.37202
 C   177 -- C   512       -0.10      5.37202
 C   176 -- C   511       -0.10      5.37202
 C    11 -- C   331       -0.10      5.37202
 C   205 -- C   550       -0.10      5.37202
 C   204 -- C   549       -0.10      5.37202
 C   203 -- C   548       -0.10      5.37202
 C   202 -- C   547       -0.10      5.37202
 C   201 -- C   546       -0.10      5.37202
 C    95 -- C   425       -0.10      5.37202
 C    95 -- C   365       -0.10      5.37202
 C    94 -- C   424       -0.10      5.37202
 C    94 -- C   364       -0.10      5.37202
 C    93 -- C   423       -0.10      5.37202
 C    93 -- C   363       -0.10      5.37202
 C    92 -- C   422       -0.10      5.37202
 C    92 -- C   362       -0.10      5.37202
 C    91 -- C   421       -0.10      5.37202
 C    91 -- C   361       -0.10      5.37202
 C    40 -- C   365       -0.10      5.37202
 C    39 -- C   364       -0.10      5.37202
 C    38 -- C   363       -0.10      5.37202
 C    37 -- C   362       -0.10      5.37202
 C    36 -- C   361       -0.10      5.37202
 C    15 -- C   335       -0.10      5.37202
 C    65 -- C   395       -0.10      5.37202
 C    65 -- C   345       -0.10      5.37202
 C    64 -- C   394       -0.10      5.37202
 C    64 -- C   344       -0.10      5.37202
 C    63 -- C   393       -0.10      5.37202
 C    30 -- C   355       -0.10      5.37202
 C    63 -- C   343       -0.10      5.37202
 C    62 -- C   392       -0.10      5.37202
 C    30 -- C   325       -0.10      5.37202
 C    14 -- C   334       -0.10      5.37202
 C    62 -- C   342       -0.10      5.37202
 C    61 -- C   391       -0.10      5.37202
 C    29 -- C   354       -0.10      5.37202
 C    61 -- C   341       -0.10      5.37202
 C    29 -- C   324       -0.10      5.37202
 C   260 -- C   550       -0.10      5.37202
 C   259 -- C   549       -0.10      5.37202
 C    28 -- C   353       -0.10      5.37202
 C   258 -- C   548       -0.10      5.37202
 C   257 -- C   547       -0.10      5.37202
 C   256 -- C   546       -0.10      5.37202
 C    28 -- C   323       -0.10      5.37202
 C    27 -- C   352       -0.10      5.37202
 C    13 -- C   333       -0.10      5.37202
 C    27 -- C   322       -0.10      5.37202
 C   120 -- C   395       -0.10      5.37202
 C    26 -- C   351       -0.10      5.37202
 C   119 -- C   394       -0.10      5.37202
 C   118 -- C   393       -0.10      5.37202
 C    55 -- C   335       -0.10      5.37202
 C   117 -- C   392       -0.10      5.37202
 C    26 -- C   321       -0.10      5.37202
 C   116 -- C   391       -0.10      5.37202
 C    54 -- C   334       -0.10      5.37202
 C    12 -- C   332       -0.10      5.37202
 C    53 -- C   333       -0.10      5.37202
 C   230 -- C   580       -0.10      5.37202
 C   230 -- C   525       -0.10      5.37202
 C   229 -- C   579       -0.10      5.37202
 C   229 -- C   524       -0.10      5.37202
 C   228 -- C   578       -0.10      5.37202
 C    52 -- C   332       -0.10      5.37202
 C   228 -- C   523       -0.10      5.37202
 C   227 -- C   577       -0.10      5.37202
 C   227 -- C   522       -0.10      5.37202
 C   226 -- C   576       -0.10      5.37202
 C   226 -- C   521       -0.10      5.37202
 C    51 -- C   331       -0.10      5.37202
 C    23 -- C   478       -0.10      5.37202
 C    49 -- C   469       -0.10      5.37202
 C    48 -- C   468       -0.10      5.37202
 C    47 -- C   467       -0.10      5.37202
 C    22 -- C   477       -0.10      5.37202
 C    46 -- C   466       -0.10      5.37202
 C    21 -- C   476       -0.10      5.37202
 C    85 -- C   355       -0.10      5.37202
 C    84 -- C   354       -0.10      5.37202
 C    83 -- C   353       -0.10      5.37202
 C    82 -- C   352       -0.10      5.37202
 C    81 -- C   351       -0.10      5.37202
 C    55 -- C   385       -0.10      5.37202
 C    54 -- C   384       -0.10      5.37202
 C    25 -- C   480       -0.10      5.37202
 C    53 -- C   383       -0.10      5.37202
 C    52 -- C   382       -0.10      5.37202
 C    51 -- C   381       -0.10      5.37202
 C    24 -- C   479       -0.10      5.37202
 C    50 -- C   470       -0.10      5.37202
 C    24 -- C   449       -0.10      5.37202
 C     6 -- C   416       -0.10      5.37202
 C    23 -- C   448       -0.10      5.37202
 C    22 -- C   447       -0.10      5.37202
 C    10 -- C   470       -0.10      5.37202
 C     5 -- C   450       -0.10      5.37202
 C    21 -- C   446       -0.10      5.37202
 C    10 -- C   420       -0.10      5.37202
 C     9 -- C   469       -0.10      5.37202
 C     9 -- C   419       -0.10      5.37202
 C     8 -- C   468       -0.10      5.37202
 C     4 -- C   449       -0.10      5.37202
 C   150 -- C   440       -0.10      5.37202
 C   149 -- C   439       -0.10      5.37202
 C   148 -- C   438       -0.10      5.37202
 C   147 -- C   437       -0.10      5.37202
 C     8 -- C   418       -0.10      5.37202
 C   146 -- C   436       -0.10      5.37202
 C     2 -- C   447       -0.10      5.37202
 C   135 -- C   460       -0.10      5.37202
 C     7 -- C   467       -0.10      5.37202
 C   134 -- C   459       -0.10      5.37202
 C   133 -- C   458       -0.10      5.37202
 C   132 -- C   457       -0.10      5.37202
 C   131 -- C   456       -0.10      5.37202
 C     7 -- C   417       -0.10      5.37202
 C     1 -- C   446       -0.10      5.37202
 C     6 -- C   466       -0.10      5.37202
 C    25 -- C   450       -0.10      5.37202
 C     3 -- C   448       -0.10      5.37202
 C   106 -- C   436       -0.10      5.37202
 C   106 -- C   376       -0.10      5.37202
 C    80 -- C   410       -0.10      5.37202
 C    79 -- C   409       -0.10      5.37202
 C    78 -- C   408       -0.10      5.37202
 C    77 -- C   407       -0.10      5.37202
 C    76 -- C   406       -0.10      5.37202
 C   135 -- C   410       -0.10      5.37202
 C   134 -- C   409       -0.10      5.37202
 C   133 -- C   408       -0.10      5.37202
 C   132 -- C   407       -0.10      5.37202
 C   131 -- C   406       -0.10      5.37202
 C   110 -- C   440       -0.10      5.37202
 C   110 -- C   380       -0.10      5.37202
 C   109 -- C   439       -0.10      5.37202
 C   109 -- C   379       -0.10      5.37202
 C   108 -- C   438       -0.10      5.37202
 C   108 -- C   378       -0.10      5.37202
 C   107 -- C   437       -0.10      5.37202
 C   107 -- C   377       -0.10      5.37202
 C   215 -- C   635       -0.10      5.38000
 C   214 -- C   634       -0.10      5.38000
 C   213 -- C   633       -0.10      5.38000
 C   212 -- C   632       -0.10      5.38000
 C   211 -- C   631       -0.10      5.38000
 C   190 -- C   620       -0.10      5.38000
 C   189 -- C   619       -0.10      5.38000
 C   188 -- C   618       -0.10      5.38000
 C   187 -- C   617       -0.10      5.38000
 C   186 -- C   616       -0.10      5.38000
 C   175 -- C   595       -0.10      5.38000
 C   174 -- C   594       -0.10      5.38000
 C   173 -- C   593       -0.10      5.38000
 C   172 -- C   592       -0.10      5.38000
 C   171 -- C   591       -0.10      5.38000
 C   245 -- C   640       -0.10      5.38000
 C   244 -- C   639       -0.10      5.38000
 C   243 -- C   638       -0.10      5.38000
 C   242 -- C   637       -0.10      5.38000
 C   241 -- C   636       -0.10      5.38000
==================================================


=================== Orbital energy and occupancy information ===================

      Total number of orbitals:    2560
        Occupancy sum (kernel):    1280.000000000
   Occupancy sum (eigenvalues):    1280.000000000
                 HOMO-LUMO gap:       0.062755652 Eh
                 Mid-gap level:       0.270144039 Eh

                        Orbital | Energy (Eh) | Occupancy
                            1    -0.453951283   1.0000000
                        .......   ...........   .........
                         1271     0.233239923   0.9999882
                         1272     0.233312447   0.9999879
                         1273     0.233713313   0.9999863
                         1274     0.233785825   0.9999860
                         1275     0.237570003   0.9999536
                         1276     0.237576637   0.9999535
                         1277     0.238021348   0.9999465
                         1278     0.238027893   0.9999464
                         1279     0.238329914   0.9999410
                         1280     0.238766213   0.9999323
                        ....... -- gap at 0K -- .........
                         1281     0.301521865   0.0000365
                         1282     0.301538244   0.0000363
                         1283     0.301767323   0.0000338
                         1284     0.301783577   0.0000336
                         1285     0.302545359   0.0000265
                         1286     0.302558697   0.0000264
                         1287     0.302807184   0.0000244
                         1288     0.302820377   0.0000243
                         1289     0.303233662   0.0000213
                         1290     0.303269371   0.0000210
                        .......   ...........   .........
                         2560     1.169188599   0.0000000

================================================================================

===================== Writing canonical molecular orbitals =====================
| Orbital  Energy (eV)  Norm     |
| HOMO      6.49715925  1.000000 | Writing "3.2735064_GO_manual_4x64graphite_HOMO.cube" ... done
Writing "3.2735064_GO_manual_4x64graphite_HOMO.dx" ... done
| LUMO      8.20482744  1.000000 | Writing "3.2735064_GO_manual_4x64graphite_LUMO.cube" ... done
Writing "3.2735064_GO_manual_4x64graphite_LUMO.dx" ... done
================================================================================
 
===================== Density of States (DOS) calculation ======================
Writing "3.2735064_GO_manual_4x64graphite_DOS.txt" ...  done
================================================================================
 
Writing bands to file "3.2735064_GO_manual_4x64graphite.val_bands" ... done
 
================ Projected Density of States (pDOS) calculation ================
 
Constructing AM resolved functions  ...... done
Writing NGWF plot files in formats: CUBE DX ...  done
 
Performing overlap integrals ...  done
 
Computing pDOS weights ...  done
 
All bands spilling parameter =   3.87 %
Occupancy-weighted spilling parameter =   0.82 %
 
 => Outputting data for OptaDOS <=
 
Writing pDOS weights to file "3.2735064_GO_manual_4x64graphite.val_pdos_bin" ... done
 
Writing band gradients to file "3.2735064_GO_manual_4x64graphite.val_dome_bin" ... done
 
Writing Castep output cell file to "3.2735064_GO_manual_4x64graphite-out.cell" ... done
 
 => Computing Gaussian smeared pDOS <= 
Writing "3.2735064_GO_manual_4x64graphite_PDOS.txt" ...  done
 
 => Computing Occupancy-weighted Gaussian smeared pDOS <= 
Writing "3.2735064_GO_manual_4x64graphite_occ_PDOS.txt" ...  done
  => Band centres: 
 S band centre of group 1:  -13.757412 eV
 P band centre of group 1:   -6.696888 eV
  Band centres done. <=
  => Integrated number of electrons in each AM band: 
 S num electrons of group 1:  571.641908
 P num electrons of group 1: 1967.320103
  Integrated number of electrons done. <=
================================================================================

------------------------------ TIMING INFORMATION ------------------------------
AVERAGE TIME:    4094.755s on     40 node(s)                                    
TOTAL TIME:      4094.755s on     40 node(s)                                    
================= AVERAGE TIMINGS FROM ALL NODES (CUMULATIVE) ==================
|| TAG                                    #calls    cpu time   %total  Gflops ||
|| work_imbalance                       :     1        0.00s   0.000%  ------ ||
|| paw_tcore_hartree_on_grid            :     1        0.00s   0.000%  ------ ||
|| paw_tcore_density                    :     1        0.01s   0.000%  ------ ||
|| paw_sphere_density_on_grid           :     1        0.01s   0.000%  ------ ||
|| sparse_set_to_garbage                :   171        0.03s   0.001%  ------ ||
|| paw_dij_hartree                      :   369        0.05s   0.001%  ------ ||
|| pseudo_make_structure_factor         :     1        0.05s   0.001%  ------ ||
|| basis_extract_function_from_box      :  1920        0.08s   0.002%  ------ ||
|| paw_species_calc_proj_prec_mat       :     1        0.12s   0.003%  ------ ||
|| paw_dataset_init                     :     1        0.15s   0.004%  ------ ||
|| density_init_guess_real              :     1        0.19s   0.005%  ------ ||
|| ngwfs_initialise_from_radial         :     2        0.66s   0.016%  ------ ||
|| restart_kernel_write                 :    16        0.92s   0.022%  ------ ||
|| sparse_init                          :     1        0.95s   0.023%  ------ ||
|| dense_normal_eigensolve              :     1        1.01s   0.025%  ------ ||
|| hartree_on_grid                      :   278        1.84s   0.045%  ------ ||
|| ewald_calculate_energy               :     1        2.36s   0.058%  ------ ||
|| projectors_init_fftbox_recip         :   151        2.90s   0.071%  ------ ||
|| fourier_apply_box_pair               :  2848        4.70s   0.115% 561.806 ||
|| basis_copy_function_to_box           : 26112        5.63s   0.137%  ------ ||
|| augmentation_screen_dij              :   283        6.10s   0.149%  ------ ||
|| sw_init                              :     1        6.73s   0.164%  ------ ||
|| sparse_embed_hotelling_invert_embed  :    29        8.80s   0.215%  ------ ||
|| ngwf_gradient_coeffs                 :    15       12.54s   0.306%  ------ ||
|| cell_grid_extract_box_real           : 10940       15.33s   0.374%  ------ ||
|| sparse_trace                         :  3352       18.54s   0.453%  ------ ||
|| fourier_apply_cell_backward          :  8589       21.17s   0.517%  46.415 ||
|| cell_grid_deposit_box_real           : 35760       22.40s   0.547%  ------ ||
|| fourier_apply_cell_forward           :  8034       23.40s   0.572%  39.266 ||
|| paw_dij_xc                           :   369       38.57s   0.942%  ------ ||
|| density_fftbox_deposit_to_cell       : 17792       44.83s   1.095%  ------ ||
|| hamiltonian_energy_components        :     3       49.01s   1.197%  ------ ||
|| aug_nonlocal_mat                     :   354       50.91s   1.243%  ------ ||
|| eigenstates_pdos                     :     1       53.82s   1.314%  ------ ||
|| augmentation_density_on_grid         :   278       54.36s   1.328%  ------ ||
|| eigenstates_calculate                :     1       57.88s   1.414%  ------ ||
|| function_ops_brappd_ketppd           :    60       63.21s   1.544%  ------ ||
|| projectors_func_ovlp_box             :    30       71.54s   1.747%  ------ ||
|| xc_energy_potential                  :   277       90.31s   2.206%  ------ ||
|| nlxc_vdw_energy                      :   554       94.43s   2.306%  ------ ||
|| properties_calculate                 :     1      102.39s   2.501%  ------ ||
|| integrals_kinetic                    :    29      105.79s   2.584%  ------ ||
|| restart_ngwfs_tightbox_output        :    14      108.52s   2.650%  ------ ||
|| dense_eigensolve                     :   245      113.71s   2.777%  ------ ||
|| potential_apply_to_ngwf_batch        :   340      131.91s   3.222%  ------ ||
|| sparse_product                       :  3357      152.36s   3.721%  ------ ||
|| basis_dot_function_with_box          : 8.525M     227.44s   5.554%  ------ ||
|| fourier_apply_box                    : 82208      255.02s   6.228% 980.539 ||
|| edft_diag_ngwf_ham                   :   244      263.23s   6.429%  ------ ||
|| projectors_gradient_batch            :    60      277.53s   6.778%  ------ ||
|| integrals_locpot_mat_els_batch       :   340      309.86s   7.567%  ------ ||
|| density_fftbox_interpolate_multiply  : 17792      344.75s   8.419%  ------ ||
|| projectors_grad_precond_batch        :    60      411.80s  10.057%  ------ ||
|| density_batch_interp_deposit         :  1112      431.78s  10.545%  ------ ||
|| integrals_locpot_dbl_grid            :    85      443.53s  10.832%  ------ ||
|| edft_apply_smearing_operator         :   244      520.89s  12.721%  ------ ||
|| basis_add_function_to_box            : 24.57M     628.21s  15.342%  ------ ||
|| ngwf_gradient_build_batch            :    60      734.51s  17.938%  ------ ||
|| density_batch_row_sums               :  1112      910.30s  22.231%  ------ ||
|| ngwf_gradient_batch                  :    60      972.23s  23.743%  ------ ||
|| ngwf_gradient_lnv                    :    15     1002.81s  24.490%  ------ ||
|| density_on_dbl_grid                  :   278     1356.23s  33.121%  ------ ||
|| hamiltonian_lhxc_calculate           :   273     1484.82s  36.262%  ------ ||
|| edft_calculate                       :    15     2456.33s  59.987%  ------ ||
|| ngwf_cg_optimise                     :     1     3972.11s  97.005%  ------ ||
|| total_time                           :     1     4094.76s 100.000%  ------ ||
================================================================================
Overhead of generating timer report: 
- 0 ms averaging over threads,
- 5 ms ensuring consistency across MPI ranks,
- 0 ms printing in order.

Job completed: 21-02-2020 17:45 (-0000)

