 +---------------------------------------------------------------+
 |                                                               |
 |        ####### #     # ####### ####### ####### ######         |
 |        #     # ##    # #          #    #       #     #        |
 |        #     # # #   # #          #    #       #     #        |
 |        #     # #  #  # #####      #    #####   ######         |
 |        #     # #   # # #          #    #       #              |
 |        #     # #    ## #          #    #       #              |
 |        ####### #     # #######    #    ####### #              |
 |                                                               |
 |        Linear-Scaling Ab Initio Total Energy Program          |
 |                                                               |
 |          Release for academic collaborators of ODG            |
 |                                             Version 5.3.2.12  |
 |                                                               |
 +---------------------------------------------------------------+
 |                                                               |
 |  Authors:                                                     |
 |  Jacek Dziedzic, Peter D. Haynes, Nicholas D. M. Hine,        |
 |  Arash. A. Mostofi, Mike C. Payne and Chris-Kriton Skylaris   |
 |                                                               |
 |  Contributors:                                                |
 |  J. Aarons, L. Andrinopoulos, P. W. Avraam, R. A. Bell,       |
 |  A. Bhandari, G. A. Bramley, R. J. Charlton, S. J. Clark,     |
 |  R. J. Clements, G. C. Constantinescu, F. Corsetti,           |
 |  N. Corsini, O. Dieguez, S. M. M. Dubois, K. K. B. Duff,      |
 |  J. M. Escartin, A. Greco, H. Helal, Q. O. Hill, L. P. Lee,   |
 |  J.-H. Li, E. B. Linscott, G. Moynihan, D. D. O`Regan,        |
 |  O. K. Okan, M. J. S. Phipps, C. J. Pickard,                  |
 |  J. C. A. Prentice, M. I. J. Probert, L. E. Ratcliff,         |
 |  M. Robinson, A. Ruiz Serrano, J. S. Spencer, E. W. Tait,     |
 |  G. Teobaldi, D. Turban, V. Vitale, K. A. Wilkinson,          |
 |  C. Weber, J. C. Womack, N. Yeung and T. J. Zuehlsdorff       |
 |                                                               |
 |                                   Copyright (c) 2004-2020     |
 |                                                               |
 |  Please cite:                                                 |
 |  "Introducing ONETEP: Linear-scaling density functional       |
 |   simulations on parallel computers".                         |
 |   C.-K. Skylaris, P. D. Haynes, A. A. Mostofi, M. C. Payne.   |
 |   J. Chem. Phys. 122 084119 (2005).                           |
 |                                                               |
 |          in all publications arising from your use of ONETEP. |
 |                                                               |
 +---------------------------------------------------------------+
 |                                                               |
 |   ONETEP is based on developments described in the following  |
 |   publications:                                               |
 |                                                               |
 |  "Nonorthogonal generalized Wannier function pseudopotential  |
 |   plane-wave method".                                         |
 |   C.-K. Skylaris, A. A. Mostofi, P. D. Haynes, O. Dieguez,    |
 |   M. C. Payne.                                                |
 |   Phys. Rev. B 66 035119 (2002).                              |
 |                                                               |
 |  "Preconditioned iterative minimization for linear-scaling    |
 |   electronic structure calculations".                         |
 |   A. A. Mostofi, P. D. Haynes, C.-K. Skylaris, M. C. Payne.   |
 |   J. Chem. Phys. 119(17), pp.8842-8848 (2003).                |
 |                                                               |
 |  "Total-energy calculations on a real space grid with         |
 |   localized functions and a plane-wave basis".                |
 |   A. A. Mostofi, C.-K. Skylaris, P. D. Haynes, M. C. Payne.   |
 |   Comput. Phys. Commun. 147, pp.788-802 (2002).               |
 |                                                               |
 |  "Accurate kinetic energy evaluation in electronic structure  |
 |   calculations with localized functions on real space grids"  |
 |   C.-K. Skylaris, A. A. Mostofi, P. D. Haynes, C. J. Pickard, |
 |   M. C. Payne.                                                |
 |   Comput. Phys. Commun. 140, pp.315-322 (2001).               |
 |                                                               |
 |  "Accurate ionic forces and geometry optimization in linear-  |
 |   scaling density-functional theory with local orbitals"      |
 |   N. D. M. Hine, M. Robinson, P. D. Haynes, C.-K. Skylaris,   |
 |   M. C. Payne, and A. A. Mostofi.                             |
 |   Phys. Rev. B 83 195102 (2011).                              |
 |                                                               |
 +---------------------------------------------------------------+

Job started: 21-02-2020 18:50 (-0000)
 
Reading parameters from file "3.5418184_GO_manual_4x64graphite.dat" ...

WARNING: "cutoff_energy" not specified, but "psinc_spacing" specified.
         Using the latter to set the KE cutoff energy to  732.32021eV,
         thus *overriding* the default.

... done

If your calculation crashes here, before "Checking processes and threads..."
is displayed, then your stack size is insufficient.
If so, use "ulimit -s unlimited" at runtime.
You can disable this check with "check_stack_size F".

Checking processes and threads...
   Determining the default number of threads...
      No default threads set at compilation time: defaulting to 1.
      OpenMP library call suggests 4 threads.
      Hybrid MPI-OpenMP compilation detected.
      Number of MPI processes > 1.
      OMP_NUM_THREADS environment variable present and
      its value matches the one obtained from the OpenMP library call.
      Using this value as default.
      Default threads: 4
      Default applies to threads_max and threads_num_fftboxes.
      Settings in the input file override this default.
   ... done

   Running with 40 MPI processes.
   There are 10 MPI processes running on the same node as the root process.
   Each MPI process is using: 
               1 threads for simulation cell FFTs.
               1 threads for parallel FFT box operations.
               4 threads for loops over batched FFT box operations.
               4 threads in other parallel regions.
... done

Basic input checks...
Resetting ngwf_cg_rotate to TRUE for EDFT calculations
... done

Reading geometry and species blocks from file "3.5418184_GO_manual_4x64graphite.dat" ...
    
  PSINC grid spacing along a1 set to   0.511215680000a0 from input file.
  PSINC grid spacing along a2 set to   0.531284090000a0 from input file.
  PSINC grid spacing along a3 set to   0.507051550000a0 from input file.
  Number of PPD points along a3 set to 1.  This is 
  the default value, it may have been provided also in the input file.
... done
 Writing xyz coordinates to file "3.5418184_GO_manual_4x64graphite.xyz" ... done


--------------------------------------------------------------------------------
---------------------------------- INPUT FILE ----------------------------------
--------------------------------------------------------------------------------

task : singlepoint                                                              
do_properties : true                                                            
dx_format T                                                                     
edft T                                                                          
output_detail VERBOSE                                                           
write_xyz T                                                                     
xc_functional AVV10S                                                            
PSINC_SPACING 0.51121568 0.53128409 0.50705155                                  
paw T                                                                           
pdos_max_l = 2                                                                  
dos_smear  0.1 eV                                                               
popn_calculate T                                                                
PDOS_PSEUDOATOMIC T                                                             
PDOS_REDUCE_SWS F                                                               
PDOS_CONSTRUCT_BASIS F                                                          
PDOS_LOWDIN T                                                                   
PDOS_ORTH_ATOM_BLOCKS F                                                         
PDOS_LCAO_OPTIMIZE F                                                            
pdos_optados_output T                                                           
homo_plot 0                                                                     
lumo_plot 0                                                                     
homo_dens_plot -1                                                               
lumo_dens_plot -1                                                               
%BLOCK SPECIES                                                                  
C C 6 4 9.0                                                                     
%ENDBLOCK SPECIES                                                               
%BLOCK SPECIES_POT                                                              
C "~/pp/paw/c_pbe_abinit.paw"                                                   
%ENDBLOCK SPECIES_POT                                                           
%BLOCK SPECIES_ATOMIC_SET                                                       
C "SOLVE conf=2s2 2p2"                                                          
%ENDBLOCK SPECIES_ATOMIC_SET                                                    
%BLOCK LATTICE_CART                                                             
32.21  0.00  0.00                                                               
0.00 18.59  0.00                                                                
0.00  0.00 66.93                                                                
%ENDBLOCK LATTICE_CART                                                          
%BLOCK POSITIONS_ABS                                                            
C  0.00  0.00  3.35                                                             
C  0.00  0.00 16.73                                                             
C  0.00  0.00 30.12                                                             
C  0.00  0.00 43.51                                                             
C  0.00  0.00 56.89                                                             
C  0.00  4.65  3.35                                                             
C  0.00  4.65 16.73                                                             
C  0.00  4.65 30.12                                                             
C  0.00  4.65 43.51                                                             
C  0.00  4.65 56.89                                                             
C  4.03  2.32  3.35                                                             
C  4.03  2.32 16.73                                                             
C  4.03  2.32 30.12                                                             
C  4.03  2.32 43.51                                                             
C  4.03  2.32 56.89                                                             
C  8.05  0.00  3.35                                                             
C  8.05  0.00 16.73                                                             
C  8.05  0.00 30.12                                                             
C  8.05  0.00 43.51                                                             
C  8.05  0.00 56.89                                                             
C  0.00  9.30  3.35                                                             
C  0.00  9.30 16.73                                                             
C  0.00  9.30 30.12                                                             
C  0.00  9.30 43.51                                                             
C  0.00  9.30 56.89                                                             
C  4.03  6.97  3.35                                                             
C  4.03  6.97 16.73                                                             
C  4.03  6.97 30.12                                                             
C  4.03  6.97 43.51                                                             
C  4.03  6.97 56.89                                                             
C  8.05  4.65  3.35                                                             
C  8.05  4.65 16.73                                                             
C  8.05  4.65 30.12                                                             
C  8.05  4.65 43.51                                                             
C  8.05  4.65 56.89                                                             
C 12.08  2.32  3.35                                                             
C 12.08  2.32 16.73                                                             
C 12.08  2.32 30.12                                                             
C 12.08  2.32 43.51                                                             
C 12.08  2.32 56.89                                                             
C 16.10  0.00  3.35                                                             
C 16.10  0.00 16.73                                                             
C 16.10  0.00 30.12                                                             
C 16.10  0.00 43.51                                                             
C 16.10  0.00 56.89                                                             
C  0.00 13.95  3.35                                                             
C  0.00 13.95 16.73                                                             
C  0.00 13.95 30.12                                                             
C  0.00 13.95 43.51                                                             
C  0.00 13.95 56.89                                                             
C  4.03 11.62  3.35                                                             
C  4.03 11.62 16.73                                                             
C  4.03 11.62 30.12                                                             
C  4.03 11.62 43.51                                                             
C  4.03 11.62 56.89                                                             
C  8.05  9.30  3.35                                                             
C  8.05  9.30 16.73                                                             
C  8.05  9.30 30.12                                                             
C  8.05  9.30 43.51                                                             
C  8.05  9.30 56.89                                                             
C 12.08  6.97  3.35                                                             
C 12.08  6.97 16.73                                                             
C 12.08  6.97 30.12                                                             
C 12.08  6.97 43.51                                                             
C 12.08  6.97 56.89                                                             
C 16.10  4.65  3.35                                                             
C 16.10  4.65 16.73                                                             
C 16.10  4.65 30.12                                                             
C 16.10  4.65 43.51                                                             
C 16.10  4.65 56.89                                                             
C 20.13  2.32  3.35                                                             
C 20.13  2.32 16.73                                                             
C 20.13  2.32 30.12                                                             
C 20.13  2.32 43.51                                                             
C 20.13  2.32 56.89                                                             
C 24.16  0.00  3.35                                                             
C 24.16  0.00 16.73                                                             
C 24.16  0.00 30.12                                                             
C 24.16  0.00 43.51                                                             
C 24.16  0.00 56.89                                                             
C  4.03 16.27  3.35                                                             
C  4.03 16.27 16.73                                                             
C  4.03 16.27 30.12                                                             
C  4.03 16.27 43.51                                                             
C  4.03 16.27 56.89                                                             
C  8.05 13.95  3.35                                                             
C  8.05 13.95 16.73                                                             
C  8.05 13.95 30.12                                                             
C  8.05 13.95 43.51                                                             
C  8.05 13.95 56.89                                                             
C 12.08 11.62  3.35                                                             
C 12.08 11.62 16.73                                                             
C 12.08 11.62 30.12                                                             
C 12.08 11.62 43.51                                                             
C 12.08 11.62 56.89                                                             
C 16.10  9.30  3.35                                                             
C 16.10  9.30 16.73                                                             
C 16.10  9.30 30.12                                                             
C 16.10  9.30 43.51                                                             
C 16.10  9.30 56.89                                                             
C 20.13  6.97  3.35                                                             
C 20.13  6.97 16.73                                                             
C 20.13  6.97 30.12                                                             
C 20.13  6.97 43.51                                                             
C 20.13  6.97 56.89                                                             
C 24.16  4.65  3.35                                                             
C 24.16  4.65 16.73                                                             
C 24.16  4.65 30.12                                                             
C 24.16  4.65 43.51                                                             
C 24.16  4.65 56.89                                                             
C 28.18  2.32  3.35                                                             
C 28.18  2.32 16.73                                                             
C 28.18  2.32 30.12                                                             
C 28.18  2.32 43.51                                                             
C 28.18  2.32 56.89                                                             
C 12.08 16.27  3.35                                                             
C 12.08 16.27 16.73                                                             
C 12.08 16.27 30.12                                                             
C 12.08 16.27 43.51                                                             
C 12.08 16.27 56.89                                                             
C 16.10 13.95  3.35                                                             
C 16.10 13.95 16.73                                                             
C 16.10 13.95 30.12                                                             
C 16.10 13.95 43.51                                                             
C 16.10 13.95 56.89                                                             
C 20.13 11.62  3.35                                                             
C 20.13 11.62 16.73                                                             
C 20.13 11.62 30.12                                                             
C 20.13 11.62 43.51                                                             
C 20.13 11.62 56.89                                                             
C 24.16  9.30  3.35                                                             
C 24.16  9.30 16.73                                                             
C 24.16  9.30 30.12                                                             
C 24.16  9.30 43.51                                                             
C 24.16  9.30 56.89                                                             
C 28.18  6.97  3.35                                                             
C 28.18  6.97 16.73                                                             
C 28.18  6.97 30.12                                                             
C 28.18  6.97 43.51                                                             
C 28.18  6.97 56.89                                                             
C 20.13 16.27  3.35                                                             
C 20.13 16.27 16.73                                                             
C 20.13 16.27 30.12                                                             
C 20.13 16.27 43.51                                                             
C 20.13 16.27 56.89                                                             
C 24.16 13.95  3.35                                                             
C 24.16 13.95 16.73                                                             
C 24.16 13.95 30.12                                                             
C 24.16 13.95 43.51                                                             
C 24.16 13.95 56.89                                                             
C 28.18 11.62  3.35                                                             
C 28.18 11.62 16.73                                                             
C 28.18 11.62 30.12                                                             
C 28.18 11.62 43.51                                                             
C 28.18 11.62 56.89                                                             
C 28.18 16.27  3.35                                                             
C 28.18 16.27 16.73                                                             
C 28.18 16.27 30.12                                                             
C 28.18 16.27 43.51                                                             
C 28.18 16.27 56.89                                                             
C  0.00  0.00 10.04                                                             
C  0.00  0.00 23.43                                                             
C  0.00  0.00 36.81                                                             
C  0.00  0.00 50.20                                                             
C  0.00  0.00 63.58                                                             
C  0.00  4.65 10.04                                                             
C  0.00  4.65 23.43                                                             
C  0.00  4.65 36.81                                                             
C  0.00  4.65 50.20                                                             
C  0.00  4.65 63.58                                                             
C  4.03  2.32 10.04                                                             
C  4.03  2.32 23.43                                                             
C  4.03  2.32 36.81                                                             
C  4.03  2.32 50.20                                                             
C  4.03  2.32 63.58                                                             
C  8.05  0.00 10.04                                                             
C  8.05  0.00 23.43                                                             
C  8.05  0.00 36.81                                                             
C  8.05  0.00 50.20                                                             
C  8.05  0.00 63.58                                                             
C  0.00  9.30 10.04                                                             
C  0.00  9.30 23.43                                                             
C  0.00  9.30 36.81                                                             
C  0.00  9.30 50.20                                                             
C  0.00  9.30 63.58                                                             
C  4.03  6.97 10.04                                                             
C  4.03  6.97 23.43                                                             
C  4.03  6.97 36.81                                                             
C  4.03  6.97 50.20                                                             
C  4.03  6.97 63.58                                                             
C  8.05  4.65 10.04                                                             
C  8.05  4.65 23.43                                                             
C  8.05  4.65 36.81                                                             
C  8.05  4.65 50.20                                                             
C  8.05  4.65 63.58                                                             
C 12.08  2.32 10.04                                                             
C 12.08  2.32 23.43                                                             
C 12.08  2.32 36.81                                                             
C 12.08  2.32 50.20                                                             
C 12.08  2.32 63.58                                                             
C 16.10  0.00 10.04                                                             
C 16.10  0.00 23.43                                                             
C 16.10  0.00 36.81                                                             
C 16.10  0.00 50.20                                                             
C 16.10  0.00 63.58                                                             
C  0.00 13.95 10.04                                                             
C  0.00 13.95 23.43                                                             
C  0.00 13.95 36.81                                                             
C  0.00 13.95 50.20                                                             
C  0.00 13.95 63.58                                                             
C  4.03 11.62 10.04                                                             
C  4.03 11.62 23.43                                                             
C  4.03 11.62 36.81                                                             
C  4.03 11.62 50.20                                                             
C  4.03 11.62 63.58                                                             
C  8.05  9.30 10.04                                                             
C  8.05  9.30 23.43                                                             
C  8.05  9.30 36.81                                                             
C  8.05  9.30 50.20                                                             
C  8.05  9.30 63.58                                                             
C 12.08  6.97 10.04                                                             
C 12.08  6.97 23.43                                                             
C 12.08  6.97 36.81                                                             
C 12.08  6.97 50.20                                                             
C 12.08  6.97 63.58                                                             
C 16.10  4.65 10.04                                                             
C 16.10  4.65 23.43                                                             
C 16.10  4.65 36.81                                                             
C 16.10  4.65 50.20                                                             
C 16.10  4.65 63.58                                                             
C 20.13  2.32 10.04                                                             
C 20.13  2.32 23.43                                                             
C 20.13  2.32 36.81                                                             
C 20.13  2.32 50.20                                                             
C 20.13  2.32 63.58                                                             
C 24.16  0.00 10.04                                                             
C 24.16  0.00 23.43                                                             
C 24.16  0.00 36.81                                                             
C 24.16  0.00 50.20                                                             
C 24.16  0.00 63.58                                                             
C  4.03 16.27 10.04                                                             
C  4.03 16.27 23.43                                                             
C  4.03 16.27 36.81                                                             
C  4.03 16.27 50.20                                                             
C  4.03 16.27 63.58                                                             
C  8.05 13.95 10.04                                                             
C  8.05 13.95 23.43                                                             
C  8.05 13.95 36.81                                                             
C  8.05 13.95 50.20                                                             
C  8.05 13.95 63.58                                                             
C 12.08 11.62 10.04                                                             
C 12.08 11.62 23.43                                                             
C 12.08 11.62 36.81                                                             
C 12.08 11.62 50.20                                                             
C 12.08 11.62 63.58                                                             
C 16.10  9.30 10.04                                                             
C 16.10  9.30 23.43                                                             
C 16.10  9.30 36.81                                                             
C 16.10  9.30 50.20                                                             
C 16.10  9.30 63.58                                                             
C 20.13  6.97 10.04                                                             
C 20.13  6.97 23.43                                                             
C 20.13  6.97 36.81                                                             
C 20.13  6.97 50.20                                                             
C 20.13  6.97 63.58                                                             
C 24.16  4.65 10.04                                                             
C 24.16  4.65 23.43                                                             
C 24.16  4.65 36.81                                                             
C 24.16  4.65 50.20                                                             
C 24.16  4.65 63.58                                                             
C 28.18  2.32 10.04                                                             
C 28.18  2.32 23.43                                                             
C 28.18  2.32 36.81                                                             
C 28.18  2.32 50.20                                                             
C 28.18  2.32 63.58                                                             
C 12.08 16.27 10.04                                                             
C 12.08 16.27 23.43                                                             
C 12.08 16.27 36.81                                                             
C 12.08 16.27 50.20                                                             
C 12.08 16.27 63.58                                                             
C 16.10 13.95 10.04                                                             
C 16.10 13.95 23.43                                                             
C 16.10 13.95 36.81                                                             
C 16.10 13.95 50.20                                                             
C 16.10 13.95 63.58                                                             
C 20.13 11.62 10.04                                                             
C 20.13 11.62 23.43                                                             
C 20.13 11.62 36.81                                                             
C 20.13 11.62 50.20                                                             
C 20.13 11.62 63.58                                                             
C 24.16  9.30 10.04                                                             
C 24.16  9.30 23.43                                                             
C 24.16  9.30 36.81                                                             
C 24.16  9.30 50.20                                                             
C 24.16  9.30 63.58                                                             
C 28.18  6.97 10.04                                                             
C 28.18  6.97 23.43                                                             
C 28.18  6.97 36.81                                                             
C 28.18  6.97 50.20                                                             
C 28.18  6.97 63.58                                                             
C 20.13 16.27 10.04                                                             
C 20.13 16.27 23.43                                                             
C 20.13 16.27 36.81                                                             
C 20.13 16.27 50.20                                                             
C 20.13 16.27 63.58                                                             
C 24.16 13.95 10.04                                                             
C 24.16 13.95 23.43                                                             
C 24.16 13.95 36.81                                                             
C 24.16 13.95 50.20                                                             
C 24.16 13.95 63.58                                                             
C 28.18 11.62 10.04                                                             
C 28.18 11.62 23.43                                                             
C 28.18 11.62 36.81                                                             
C 28.18 11.62 50.20                                                             
C 28.18 11.62 63.58                                                             
C 28.18 16.27 10.04                                                             
C 28.18 16.27 23.43                                                             
C 28.18 16.27 36.81                                                             
C 28.18 16.27 50.20                                                             
C 28.18 16.27 63.58                                                             
C  1.34  2.32  3.35                                                             
C  1.34  2.32 16.73                                                             
C  1.34  2.32 30.12                                                             
C  1.34  2.32 43.51                                                             
C  1.34  2.32 56.89                                                             
C  5.37  0.00  3.35                                                             
C  5.37  0.00 16.73                                                             
C  5.37  0.00 30.12                                                             
C  5.37  0.00 43.51                                                             
C  5.37  0.00 56.89                                                             
C  1.34  6.97  3.35                                                             
C  1.34  6.97 16.73                                                             
C  1.34  6.97 30.12                                                             
C  1.34  6.97 43.51                                                             
C  1.34  6.97 56.89                                                             
C  5.37  4.65  3.35                                                             
C  5.37  4.65 16.73                                                             
C  5.37  4.65 30.12                                                             
C  5.37  4.65 43.51                                                             
C  5.37  4.65 56.89                                                             
C  9.39  2.32  3.35                                                             
C  9.39  2.32 16.73                                                             
C  9.39  2.32 30.12                                                             
C  9.39  2.32 43.51                                                             
C  9.39  2.32 56.89                                                             
C 13.42  0.00  3.35                                                             
C 13.42  0.00 16.73                                                             
C 13.42  0.00 30.12                                                             
C 13.42  0.00 43.51                                                             
C 13.42  0.00 56.89                                                             
C  1.34 11.62  3.35                                                             
C  1.34 11.62 16.73                                                             
C  1.34 11.62 30.12                                                             
C  1.34 11.62 43.51                                                             
C  1.34 11.62 56.89                                                             
C  5.37  9.30  3.35                                                             
C  5.37  9.30 16.73                                                             
C  5.37  9.30 30.12                                                             
C  5.37  9.30 43.51                                                             
C  5.37  9.30 56.89                                                             
C  9.39  6.97  3.35                                                             
C  9.39  6.97 16.73                                                             
C  9.39  6.97 30.12                                                             
C  9.39  6.97 43.51                                                             
C  9.39  6.97 56.89                                                             
C 13.42  4.65  3.35                                                             
C 13.42  4.65 16.73                                                             
C 13.42  4.65 30.12                                                             
C 13.42  4.65 43.51                                                             
C 13.42  4.65 56.89                                                             
C 17.45  2.32  3.35                                                             
C 17.45  2.32 16.73                                                             
C 17.45  2.32 30.12                                                             
C 17.45  2.32 43.51                                                             
C 17.45  2.32 56.89                                                             
C 21.47  0.00  3.35                                                             
C 21.47  0.00 16.73                                                             
C 21.47  0.00 30.12                                                             
C 21.47  0.00 43.51                                                             
C 21.47  0.00 56.89                                                             
C  1.34 16.27  3.35                                                             
C  1.34 16.27 16.73                                                             
C  1.34 16.27 30.12                                                             
C  1.34 16.27 43.51                                                             
C  1.34 16.27 56.89                                                             
C  5.37 13.95  3.35                                                             
C  5.37 13.95 16.73                                                             
C  5.37 13.95 30.12                                                             
C  5.37 13.95 43.51                                                             
C  5.37 13.95 56.89                                                             
C  9.39 11.62  3.35                                                             
C  9.39 11.62 16.73                                                             
C  9.39 11.62 30.12                                                             
C  9.39 11.62 43.51                                                             
C  9.39 11.62 56.89                                                             
C 13.42  9.30  3.35                                                             
C 13.42  9.30 16.73                                                             
C 13.42  9.30 30.12                                                             
C 13.42  9.30 43.51                                                             
C 13.42  9.30 56.89                                                             
C 17.45  6.97  3.35                                                             
C 17.45  6.97 16.73                                                             
C 17.45  6.97 30.12                                                             
C 17.45  6.97 43.51                                                             
C 17.45  6.97 56.89                                                             
C 21.47  4.65  3.35                                                             
C 21.47  4.65 16.73                                                             
C 21.47  4.65 30.12                                                             
C 21.47  4.65 43.51                                                             
C 21.47  4.65 56.89                                                             
C 25.50  2.32  3.35                                                             
C 25.50  2.32 16.73                                                             
C 25.50  2.32 30.12                                                             
C 25.50  2.32 43.51                                                             
C 25.50  2.32 56.89                                                             
C 29.52  0.00  3.35                                                             
C 29.52  0.00 16.73                                                             
C 29.52  0.00 30.12                                                             
C 29.52  0.00 43.51                                                             
C 29.52  0.00 56.89                                                             
C  9.39 16.27  3.35                                                             
C  9.39 16.27 16.73                                                             
C  9.39 16.27 30.12                                                             
C  9.39 16.27 43.51                                                             
C  9.39 16.27 56.89                                                             
C 13.42 13.95  3.35                                                             
C 13.42 13.95 16.73                                                             
C 13.42 13.95 30.12                                                             
C 13.42 13.95 43.51                                                             
C 13.42 13.95 56.89                                                             
C 17.45 11.62  3.35                                                             
C 17.45 11.62 16.73                                                             
C 17.45 11.62 30.12                                                             
C 17.45 11.62 43.51                                                             
C 17.45 11.62 56.89                                                             
C 21.47  9.30  3.35                                                             
C 21.47  9.30 16.73                                                             
C 21.47  9.30 30.12                                                             
C 21.47  9.30 43.51                                                             
C 21.47  9.30 56.89                                                             
C 25.50  6.97  3.35                                                             
C 25.50  6.97 16.73                                                             
C 25.50  6.97 30.12                                                             
C 25.50  6.97 43.51                                                             
C 25.50  6.97 56.89                                                             
C 29.52  4.65  3.35                                                             
C 29.52  4.65 16.73                                                             
C 29.52  4.65 30.12                                                             
C 29.52  4.65 43.51                                                             
C 29.52  4.65 56.89                                                             
C 17.45 16.27  3.35                                                             
C 17.45 16.27 16.73                                                             
C 17.45 16.27 30.12                                                             
C 17.45 16.27 43.51                                                             
C 17.45 16.27 56.89                                                             
C 21.47 13.95  3.35                                                             
C 21.47 13.95 16.73                                                             
C 21.47 13.95 30.12                                                             
C 21.47 13.95 43.51                                                             
C 21.47 13.95 56.89                                                             
C 25.50 11.62  3.35                                                             
C 25.50 11.62 16.73                                                             
C 25.50 11.62 30.12                                                             
C 25.50 11.62 43.51                                                             
C 25.50 11.62 56.89                                                             
C 29.52  9.30  3.35                                                             
C 29.52  9.30 16.73                                                             
C 29.52  9.30 30.12                                                             
C 29.52  9.30 43.51                                                             
C 29.52  9.30 56.89                                                             
C 25.50 16.27  3.35                                                             
C 25.50 16.27 16.73                                                             
C 25.50 16.27 30.12                                                             
C 25.50 16.27 43.51                                                             
C 25.50 16.27 56.89                                                             
C 29.52 13.95  3.35                                                             
C 29.52 13.95 16.73                                                             
C 29.52 13.95 30.12                                                             
C 29.52 13.95 43.51                                                             
C 29.52 13.95 56.89                                                             
C  2.68  0.00 10.04                                                             
C  2.68  0.00 23.43                                                             
C  2.68  0.00 36.81                                                             
C  2.68  0.00 50.20                                                             
C  2.68  0.00 63.58                                                             
C  2.68  4.65 10.04                                                             
C  2.68  4.65 23.43                                                             
C  2.68  4.65 36.81                                                             
C  2.68  4.65 50.20                                                             
C  2.68  4.65 63.58                                                             
C  6.71  2.32 10.04                                                             
C  6.71  2.32 23.43                                                             
C  6.71  2.32 36.81                                                             
C  6.71  2.32 50.20                                                             
C  6.71  2.32 63.58                                                             
C 10.74  0.00 10.04                                                             
C 10.74  0.00 23.43                                                             
C 10.74  0.00 36.81                                                             
C 10.74  0.00 50.20                                                             
C 10.74  0.00 63.58                                                             
C  2.68  9.30 10.04                                                             
C  2.68  9.30 23.43                                                             
C  2.68  9.30 36.81                                                             
C  2.68  9.30 50.20                                                             
C  2.68  9.30 63.58                                                             
C  6.71  6.97 10.04                                                             
C  6.71  6.97 23.43                                                             
C  6.71  6.97 36.81                                                             
C  6.71  6.97 50.20                                                             
C  6.71  6.97 63.58                                                             
C 10.74  4.65 10.04                                                             
C 10.74  4.65 23.43                                                             
C 10.74  4.65 36.81                                                             
C 10.74  4.65 50.20                                                             
C 10.74  4.65 63.58                                                             
C 14.76  2.32 10.04                                                             
C 14.76  2.32 23.43                                                             
C 14.76  2.32 36.81                                                             
C 14.76  2.32 50.20                                                             
C 14.76  2.32 63.58                                                             
C 18.79  0.00 10.04                                                             
C 18.79  0.00 23.43                                                             
C 18.79  0.00 36.81                                                             
C 18.79  0.00 50.20                                                             
C 18.79  0.00 63.58                                                             
C  2.68 13.95 10.04                                                             
C  2.68 13.95 23.43                                                             
C  2.68 13.95 36.81                                                             
C  2.68 13.95 50.20                                                             
C  2.68 13.95 63.58                                                             
C  6.71 11.62 10.04                                                             
C  6.71 11.62 23.43                                                             
C  6.71 11.62 36.81                                                             
C  6.71 11.62 50.20                                                             
C  6.71 11.62 63.58                                                             
C 10.74  9.30 10.04                                                             
C 10.74  9.30 23.43                                                             
C 10.74  9.30 36.81                                                             
C 10.74  9.30 50.20                                                             
C 10.74  9.30 63.58                                                             
C 14.76  6.97 10.04                                                             
C 14.76  6.97 23.43                                                             
C 14.76  6.97 36.81                                                             
C 14.76  6.97 50.20                                                             
C 14.76  6.97 63.58                                                             
C 18.79  4.65 10.04                                                             
C 18.79  4.65 23.43                                                             
C 18.79  4.65 36.81                                                             
C 18.79  4.65 50.20                                                             
C 18.79  4.65 63.58                                                             
C 22.81  2.32 10.04                                                             
C 22.81  2.32 23.43                                                             
C 22.81  2.32 36.81                                                             
C 22.81  2.32 50.20                                                             
C 22.81  2.32 63.58                                                             
C 26.84  0.00 10.04                                                             
C 26.84  0.00 23.43                                                             
C 26.84  0.00 36.81                                                             
C 26.84  0.00 50.20                                                             
C 26.84  0.00 63.58                                                             
C  6.71 16.27 10.04                                                             
C  6.71 16.27 23.43                                                             
C  6.71 16.27 36.81                                                             
C  6.71 16.27 50.20                                                             
C  6.71 16.27 63.58                                                             
C 10.74 13.95 10.04                                                             
C 10.74 13.95 23.43                                                             
C 10.74 13.95 36.81                                                             
C 10.74 13.95 50.20                                                             
C 10.74 13.95 63.58                                                             
C 14.76 11.62 10.04                                                             
C 14.76 11.62 23.43                                                             
C 14.76 11.62 36.81                                                             
C 14.76 11.62 50.20                                                             
C 14.76 11.62 63.58                                                             
C 18.79  9.30 10.04                                                             
C 18.79  9.30 23.43                                                             
C 18.79  9.30 36.81                                                             
C 18.79  9.30 50.20                                                             
C 18.79  9.30 63.58                                                             
C 22.81  6.97 10.04                                                             
C 22.81  6.97 23.43                                                             
C 22.81  6.97 36.81                                                             
C 22.81  6.97 50.20                                                             
C 22.81  6.97 63.58                                                             
C 26.84  4.65 10.04                                                             
C 26.84  4.65 23.43                                                             
C 26.84  4.65 36.81                                                             
C 26.84  4.65 50.20                                                             
C 26.84  4.65 63.58                                                             
C 30.86  2.32 10.04                                                             
C 30.86  2.32 23.43                                                             
C 30.86  2.32 36.81                                                             
C 30.86  2.32 50.20                                                             
C 30.86  2.32 63.58                                                             
C 14.76 16.27 10.04                                                             
C 14.76 16.27 23.43                                                             
C 14.76 16.27 36.81                                                             
C 14.76 16.27 50.20                                                             
C 14.76 16.27 63.58                                                             
C 18.79 13.95 10.04                                                             
C 18.79 13.95 23.43                                                             
C 18.79 13.95 36.81                                                             
C 18.79 13.95 50.20                                                             
C 18.79 13.95 63.58                                                             
C 22.81 11.62 10.04                                                             
C 22.81 11.62 23.43                                                             
C 22.81 11.62 36.81                                                             
C 22.81 11.62 50.20                                                             
C 22.81 11.62 63.58                                                             
C 26.84  9.30 10.04                                                             
C 26.84  9.30 23.43                                                             
C 26.84  9.30 36.81                                                             
C 26.84  9.30 50.20                                                             
C 26.84  9.30 63.58                                                             
C 30.86  6.97 10.04                                                             
C 30.86  6.97 23.43                                                             
C 30.86  6.97 36.81                                                             
C 30.86  6.97 50.20                                                             
C 30.86  6.97 63.58                                                             
C 22.81 16.27 10.04                                                             
C 22.81 16.27 23.43                                                             
C 22.81 16.27 36.81                                                             
C 22.81 16.27 50.20                                                             
C 22.81 16.27 63.58                                                             
C 26.84 13.95 10.04                                                             
C 26.84 13.95 23.43                                                             
C 26.84 13.95 36.81                                                             
C 26.84 13.95 50.20                                                             
C 26.84 13.95 63.58                                                             
C 30.86 11.62 10.04                                                             
C 30.86 11.62 23.43                                                             
C 30.86 11.62 36.81                                                             
C 30.86 11.62 50.20                                                             
C 30.86 11.62 63.58                                                             
C 30.86 16.27 10.04                                                             
C 30.86 16.27 23.43                                                             
C 30.86 16.27 36.81                                                             
C 30.86 16.27 50.20                                                             
C 30.86 16.27 63.58                                                             
%ENDBLOCK POSITIONS_ABS                                                         

--------------------------------------------------------------------------------
-------------------------------- END INPUT FILE --------------------------------
--------------------------------------------------------------------------------


 
<<<<<<<<<<<<<<<<<<<<<<<<<<<<<<<<< Full system >>>>>>>>>>>>>>>>>>>>>>>>>>>>>>>>>>
<<<<<<<<<<<<<<<<<<<<<<<<<<< PAW Dataset information >>>>>>>>>>>>>>>>>>>>>>>>>>>
File: ~/pp/paw/c_pbe_abinit.paw; rc = 1.25 bohr; shape type =  3; rshape = 1.25 bohr;
  Atomic number:  6;  ionic charge:  4.000000
    Partial Wave 1: l = 0
    Partial Wave 2: l = 0
    Partial Wave 3: l = 1
    Partial Wave 4: l = 1
  Core charge supplied for Nonlinear Core Corrections
<<<<<<<<<<<<<<<<<<<<<<<<<<<<<<<<<<<<<<< >>>>>>>>>>>>>>>>>>>>>>>>>>>>>>>>>>>>>>>

-------------------------- Atom counting information ---------------------------
Symbol    Natoms    Nngwfs    Nprojs
  C        640      2560      5120
.......   ......    ......    ......
Totals:    640      2560      5120
--------------------------------------------------------------------------------

=============================== PSINC grid sizes ===============================
                      Simulation cell:   63 x  35 x 132
                              FFT-box:   63 x  35 x 117
                                  PPD:    7 x   5 x   1
Grid space d1=  0.511269841270a0 (KE cutoff=  29.06054Eh = 790.77748eV)
Grid space d2=  0.531142857143a0 (KE cutoff=  26.92659Eh = 732.70972eV)
Grid space d3=  0.507045454545a0 (KE cutoff=  29.54678Eh = 804.00890eV)
================================================================================
  
WARNING in cell_grid_distribute:
Average of less than one 23-slab per node, so workload cannot be
equally balanced between nodes.

********************* Fourier parallelisation information **********************
       Coarse grid (whole simulation cell) dimensions:     63    35   132
          Real-space ('12') slabs/node (min max mean):      3     4     3
         Recip-space ('23') slabs/node (min max mean):      0     1     0
********************************************************************************

********************* Fourier parallelisation information **********************
       Double grid (whole simulation cell) dimensions:    126    70   264
          Real-space ('12') slabs/node (min max mean):      6     7     6
         Recip-space ('23') slabs/node (min max mean):      1     2     1
********************************************************************************

Atom SCF Calculation for C  : Z (AE atom) =   6 : Z (PS atom) =   4
Config String: 2s2 2p2
Orbitals (num,occ):  2     2.00 2.00
Orbitals   (num,l):  2        0    1
Real-space Grid (nr,dr,rmax): 1293    0.0069659443    9.0000000000
Spherical Bessel Basis (nsws,lmax,cutoff):   37    2  161.4736382572
Confining potential (l,width,scale):  0    3.0000000000  100.0000000000
Confining potential (l,width,scale):  1    3.0000000000  100.0000000000
  1         -5.4129360987   -1.2444937266    4.5135257941   -1.5420271367
  2         -5.3444202281   -1.3377187790    4.4131101426   -1.5071921700
  3         -5.3525226456   -1.3566567794    4.3924752240   -1.5004938544
  4         -5.3561013121   -1.3623552809    4.3862114699   -1.4986199617
  5         -5.3580093800   -1.3653574582    4.3828991843   -1.4976654093
  6         -5.3590276761   -1.3669475005    4.3811409016   -1.4971696795
  7         -5.3595688314   -1.3677934914    4.3802040659   -1.4969088858
  8         -5.3598556216   -1.3682449178    4.3797036984   -1.4967706290
  9         -5.3600074081   -1.3684862338    4.3794360452   -1.4966970063
 10         -5.3600877081   -1.3686153812    4.3792927313   -1.4966576988
 11         -5.3601301919   -1.3686845537    4.3792159394   -1.4966366788
 12         -5.3601526758   -1.3687216261    4.3791747687   -1.4966254262
 13         -5.3601645804   -1.3687415049    4.3791526850   -1.4966193980
 14         -5.3601708871   -1.3687521691    4.3791408341   -1.4966161667
 15         -5.3601742301   -1.3687578926    4.3791344719   -1.4966144337
 16         -5.3601760032   -1.3687609656    4.3791310549   -1.4966135039
 17         -5.3601769442   -1.3687626162    4.3791292190   -1.4966130048
 18         -5.3601774440   -1.3687635032    4.3791282322   -1.4966127369
 19         -5.3601777096   -1.3687639799    4.3791277016   -1.4966125929
 20         -5.3601778508   -1.3687642363    4.3791274162   -1.4966125155
 21         -5.3601779259   -1.3687643743    4.3791272626   -1.4966124740
Atom SCF converged after  21 iterations to a total energy of     -5.36017793

Determining parallel strategy ...
... using space-filling curve
... NGWF load balancing: max     64;  min     64;  average     64
... Projector load balancing: max    128;  min    128;  average    128
... done
Calculating Ewald energy ...
              Ewald: real-space energy =    9485.205062
        Ewald: reciprocal-space energy =       0.175253
         Ewald: (sum_charge)**2 Energy =   11111.165858
         Ewald: (sum_charge**2) Energy =     878.414789
                          Ewald Energy =   -2504.200333
Basis initialisation ...... NGWF spheres initialised
... Projector spheres initialised
... NGWF tight boxes initialised
... Projector tight boxes initialised
... Tight-boxes gathered
... NGWF basis size (local,global):     693556  27898848
... PAW projector initialisation
... done

============================= Charge Augmentation ==============================
                           Aug box size:   11 x  11 x  11
================================================================================

========================== Sparse matrix information ===========================
                        Overlap matrix filling:  42.19%
                        Density kernel filling: 100.00%
              NGWF-Proj overlap matrix filling:  12.19%
                    Aug Overlap matrix filling:  47.03%
                    Hamiltonian matrix filling:  47.03%
                  NGWF diagonal matrix filling:   0.16%
                             KS matrix filling: 100.00% 
                           KSKS matrix filling: 100.00% 
================================================================================

Sparse matrix initialisation ... done
NGWF initialisation ...... done
============ Calculation of NGWF S^-1 using Hotelling algorithm ================ 
         Iteration  |  Frobenius norm and Maximum abs value    (of I-S*S_n^-1)   
               1       0.49053054E+02     0.97600017E+00
               2       0.47820729E+02     0.95380986E+00
               3       0.45974143E+02     0.91396627E+00
               4       0.43585086E+02     0.84796524E+00
               5       0.40733021E+02     0.75003524E+00
               6       0.37426864E+02     0.67953590E+00
               7       0.33995023E+02     0.63253958E+00
               8       0.30744771E+02     0.59373653E+00
               9       0.27302017E+02     0.55210347E+00
              10       0.22965343E+02     0.48689112E+00
              11       0.17282114E+02     0.38205254E+00
              12       0.10601519E+02     0.24041513E+00
              13       0.45470958E+01     0.10123844E+00
              14       0.99844177E+00     0.20506697E-01
              15       0.57138832E-01     0.10285652E-02
              16       0.23525047E-03     0.32892166E-05
              17       0.59606420E-08     0.51746607E-10
              18       0.80724737E-13     0.42188475E-14
================================================================================
Calculating core density ...
================================= Core Density =================================
               Core den box size:   21 x  21 x  21
================================================================================
 ... done
Up spin density kernel initialisation ...... done

Writing density kernel to file "3.5418184_GO_manual_4x64graphite.dkn" ... done

>>> Optimising kernel for current NGWFs:

--------------------------- Ensemble-DFT optimisation --------------------------
Running ScaLAPACK on   40 processor(s).

--------------------------------------------------------------------------------
  Iter                              Commutator    Free_energy(A=E-TS)     DeltaA
#    0                          0.000031780420   -3617.17805401716214  -3.62E+03

Step                       =       0.381966011250
Energy                     =   -3617.178026731615
Entropy (-TS)              =      -0.000027285608
Free energy (A=E-TS)       =   -3617.178054017162
Est. 0K Energy 0.5*(E+A)   =   -3617.178040374389
Residual Non-orthogonality =       0.000000000000
Residual N_electrons       =       0.000000000061

Spin          Integrated_Ne            Fermi_level     Delta_Fermi_level
   1      2559.999999999680         0.190073235280              1.90E-01

                           Spin 1          
     Orb      H-eigenvalues     Occupancies
       1 |    -0.5360028787    1.0000000000 | 
                          ------
    1276 |     0.1554472107    0.9999821597 | 
    1277 |     0.1560617882    0.9999783388 | 
    1278 |     0.1560801360    0.9999782129 | 
    1279 |     0.1564007705    0.9999758915 | 
    1280 |     0.1570313989    0.9999705794 | 
                 - Gap at zero temperature -
    1281 |     0.2257848233    0.0000126628 | 
    1282 |     0.2257992624    0.0000126052 | 
    1283 |     0.2258480176    0.0000124126 | 
    1284 |     0.2259610772    0.0000119773 | 
    1285 |     0.2259708515    0.0000119404 | 
                          ------
    2560 |     1.0312368959    0.0000000000 | 

                       |  Abs_value |  Threshold | Converged
     Delta_Free_energy |   3.62E+03 |   1.00E-06 |        No
     Delta_Energy      |   3.62E+03 |   1.00E-04 |        No
     Delta_Entropy     |   2.73E-05 |   1.00E-04 |       Yes
     Commutator        |   3.18E-05 |   1.00E-05 |        No
     Delta_Fermi_level |   1.90E-01 |   1.00E-03 |        No

  Line search of the free energy minimum:
  Step_type        Step             Free_energy   Predicted_free_energy
.   Initial    0.000000    -3617.17805401716214
.    Trial1    0.381966    -3617.17922412548842
.    Trial2    0.618034    -3617.17928758480957
. Quadratic    0.529725    -3617.17932296657364    -3617.17932284694916

--------------------------------------------------------------------------------
  Iter                              Commutator    Free_energy(A=E-TS)     DeltaA
#    1                          0.000018440556   -3617.17932296657364  -1.27E-03

Step                       =       0.529725312823
Energy                     =   -3617.179294922354
Entropy (-TS)              =      -0.000028044112
Free energy (A=E-TS)       =   -3617.179322966574
Est. 0K Energy 0.5*(E+A)   =   -3617.179308944464
Residual Non-orthogonality =       0.000000000000
Residual N_electrons       =      -0.000000000108

Spin          Integrated_Ne            Fermi_level     Delta_Fermi_level
   1      2560.000000000570         0.188794577853             -1.28E-03

                           Spin 1          
     Orb      H-eigenvalues     Occupancies
       1 |    -0.5373782030    1.0000000000 | 
                          ------
    1276 |     0.1543454614    0.9999811348 | 
    1277 |     0.1548013935    0.9999782135 | 
    1278 |     0.1548330309    0.9999779948 | 
    1279 |     0.1552937196    0.9999745491 | 
    1280 |     0.1557790289    0.9999703342 | 
                 - Gap at zero temperature -
    1281 |     0.2243639176    0.0000132446 | 
    1282 |     0.2243880169    0.0000131442 | 
    1283 |     0.2244362311    0.0000129456 | 
    1284 |     0.2245364954    0.0000125421 | 
    1285 |     0.2245416915    0.0000125216 | 
                          ------
    2560 |     1.0299197227    0.0000000000 | 

                       |  Abs_value |  Threshold | Converged
     Delta_Free_energy |   1.27E-03 |   1.00E-06 |        No
     Delta_Energy      |   1.27E-03 |   1.00E-04 |        No
     Delta_Entropy     |   7.59E-07 |   1.00E-04 |       Yes
     Commutator        |   1.84E-05 |   1.00E-05 |        No
     Delta_Fermi_level |   1.28E-03 |   1.00E-03 |        No

  Line search of the free energy minimum:
  Step_type        Step             Free_energy   Predicted_free_energy
.   Initial    0.000000    -3617.17932296657364
.    Trial1    0.529725    -3617.17931655778602
.    Trial2    0.202337    -3617.17962293196160
. Quadratic    0.263538    -3617.17964007267301    -3617.17964003104771

--------------------------------------------------------------------------------
  Iter                              Commutator    Free_energy(A=E-TS)     DeltaA
#    2                          0.000010457002   -3617.17964007267301  -3.17E-04

Step                       =       0.263537604897
Energy                     =   -3617.179611872033
Entropy (-TS)              =      -0.000028200831
Free energy (A=E-TS)       =   -3617.179640072673
Est. 0K Energy 0.5*(E+A)   =   -3617.179625972353
Residual Non-orthogonality =       0.000000000000
Residual N_electrons       =       0.000000000191

Spin          Integrated_Ne            Fermi_level     Delta_Fermi_level
   1      2559.999999998984         0.188481589922             -3.13E-04

                           Spin 1          
     Orb      H-eigenvalues     Occupancies
       1 |    -0.5377131488    1.0000000000 | 
                          ------
    1276 |     0.1540283671    0.9999811592 | 
    1277 |     0.1545227215    0.9999779762 | 
    1278 |     0.1545581948    0.9999777281 | 
    1279 |     0.1549717861    0.9999746209 | 
    1280 |     0.1554993378    0.9999700207 | 
                 - Gap at zero temperature -
    1281 |     0.2240443655    0.0000132721 | 
    1282 |     0.2240720201    0.0000131567 | 
    1283 |     0.2241158372    0.0000129759 | 
    1284 |     0.2242243220    0.0000125389 | 
    1285 |     0.2242303320    0.0000125151 | 
                          ------
    2560 |     1.0295862163    0.0000000000 | 

                       |  Abs_value |  Threshold | Converged
     Delta_Free_energy |   3.17E-04 |   1.00E-06 |        No
     Delta_Energy      |   3.17E-04 |   1.00E-04 |        No
     Delta_Entropy     |   1.57E-07 |   1.00E-04 |       Yes
     Commutator        |   1.05E-05 |   1.00E-05 |        No
     Delta_Fermi_level |   3.13E-04 |   1.00E-03 |       Yes

  Line search of the free energy minimum:
  Step_type        Step             Free_energy   Predicted_free_energy
.   Initial    0.000000    -3617.17964007267301
.    Trial1    0.263538    -3617.17974101803338
.    Trial2    0.544841    -3617.17972388901535
. Quadratic    0.366823    -3617.17974971921467    -3617.17974971011017

--------------------------------------------------------------------------------
  Iter                              Commutator    Free_energy(A=E-TS)     DeltaA
#    3                          0.000007306842   -3617.17974971921467  -1.10E-04

Step                       =       0.366822994186
Energy                     =   -3617.179721354159
Entropy (-TS)              =      -0.000028365066
Free energy (A=E-TS)       =   -3617.179749719215
Est. 0K Energy 0.5*(E+A)   =   -3617.179735536687
Residual Non-orthogonality =       0.000000000000
Residual N_electrons       =       0.000000000011

Spin          Integrated_Ne            Fermi_level     Delta_Fermi_level
   1      2559.999999999943         0.188158112180             -3.23E-04

                           Spin 1          
     Orb      H-eigenvalues     Occupancies
       1 |    -0.5380513345    1.0000000000 | 
                          ------
    1276 |     0.1537170569    0.9999810867 | 
    1277 |     0.1542219932    0.9999778174 | 
    1278 |     0.1542613611    0.9999775399 | 
    1279 |     0.1546566703    0.9999745538 | 
    1280 |     0.1551987080    0.9999698036 | 
                 - Gap at zero temperature -
    1281 |     0.2237042089    0.0000133421 | 
    1282 |     0.2237355431    0.0000132108 | 
    1283 |     0.2237757349    0.0000130442 | 
    1284 |     0.2238885325    0.0000125877 | 
    1285 |     0.2238954104    0.0000125604 | 
                          ------
    2560 |     1.0292561400    0.0000000000 | 

                       |  Abs_value |  Threshold | Converged
     Delta_Free_energy |   1.10E-04 |   1.00E-06 |        No
     Delta_Energy      |   1.09E-04 |   1.00E-04 |        No
     Delta_Entropy     |   1.64E-07 |   1.00E-04 |       Yes
     Commutator        |   7.31E-06 |   1.00E-05 |       Yes
     Delta_Fermi_level |   3.23E-04 |   1.00E-03 |       Yes

  Line search of the free energy minimum:
  Step_type        Step             Free_energy   Predicted_free_energy
.   Initial    0.000000    -3617.17974971921467
.    Trial1    0.366823    -3617.17979019691529
.    Trial2    0.608675    -3617.17971547879915
. Quadratic    0.263506    -3617.17979754207590    -3617.17979755002534

--------------------------------------------------------------------------------
  Iter                              Commutator    Free_energy(A=E-TS)     DeltaA
#    4                          0.000004739994   -3617.17979754207590  -4.78E-05

Step                       =       0.263505930553
Energy                     =   -3617.179769099663
Entropy (-TS)              =      -0.000028442210
Free energy (A=E-TS)       =   -3617.179797542076
[...]
 C   160 -- C   385       -0.10      5.37000
 C   159 -- C   384       -0.10      5.37000
 C   158 -- C   383       -0.10      5.37000
 C   157 -- C   382       -0.10      5.37000
 C   156 -- C   381       -0.10      5.37000
 C   155 -- C   355       -0.10      5.37000
 C   154 -- C   354       -0.10      5.37000
 C   153 -- C   353       -0.10      5.37000
 C   152 -- C   352       -0.10      5.37000
 C   151 -- C   351       -0.10      5.37000
 C   140 -- C   335       -0.10      5.37000
 C   139 -- C   334       -0.10      5.37000
 C   138 -- C   333       -0.10      5.37000
 C   137 -- C   332       -0.10      5.37000
 C   136 -- C   331       -0.10      5.37000
 C   115 -- C   325       -0.10      5.37000
 C   114 -- C   324       -0.10      5.37000
 C   113 -- C   323       -0.10      5.37000
 C   112 -- C   322       -0.10      5.37000
 C   111 -- C   321       -0.10      5.37000
 C   219 -- C   569       -0.10      5.37202
 C   218 -- C   568       -0.10      5.37202
 C   217 -- C   567       -0.10      5.37202
 C   216 -- C   566       -0.10      5.37202
 C   285 -- C   580       -0.10      5.37202
 C   284 -- C   579       -0.10      5.37202
 C   283 -- C   578       -0.10      5.37202
 C   282 -- C   577       -0.10      5.37202
 C   281 -- C   576       -0.10      5.37202
 C   260 -- C   605       -0.10      5.37202
 C   259 -- C   604       -0.10      5.37202
 C   258 -- C   603       -0.10      5.37202
 C   257 -- C   602       -0.10      5.37202
 C   256 -- C   601       -0.10      5.37202
 C   250 -- C   540       -0.10      5.37202
 C   249 -- C   539       -0.10      5.37202
 C   248 -- C   538       -0.10      5.37202
 C   247 -- C   537       -0.10      5.37202
 C   246 -- C   536       -0.10      5.37202
 C   220 -- C   570       -0.10      5.37202
 C   220 -- C   515       -0.10      5.37202
 C   219 -- C   514       -0.10      5.37202
 C   218 -- C   513       -0.10      5.37202
 C   217 -- C   512       -0.10      5.37202
 C   216 -- C   511       -0.10      5.37202
 C    95 -- C   425       -0.10      5.37202
 C    94 -- C   424       -0.10      5.37202
 C    93 -- C   423       -0.10      5.37202
 C   195 -- C   540       -0.10      5.37202
 C   195 -- C   500       -0.10      5.37202
 C   194 -- C   539       -0.10      5.37202
 C    92 -- C   422       -0.10      5.37202
 C   194 -- C   499       -0.10      5.37202
 C   193 -- C   538       -0.10      5.37202
 C   193 -- C   498       -0.10      5.37202
 C   192 -- C   537       -0.10      5.37202
 C    91 -- C   421       -0.10      5.37202
 C   192 -- C   497       -0.10      5.37202
 C   191 -- C   536       -0.10      5.37202
 C   191 -- C   496       -0.10      5.37202
 C    85 -- C   355       -0.10      5.37202
 C   180 -- C   515       -0.10      5.37202
 C    84 -- C   354       -0.10      5.37202
 C   179 -- C   514       -0.10      5.37202
 C    83 -- C   353       -0.10      5.37202
 C   178 -- C   513       -0.10      5.37202
 C   177 -- C   512       -0.10      5.37202
 C    82 -- C   352       -0.10      5.37202
 C   176 -- C   511       -0.10      5.37202
 C    81 -- C   351       -0.10      5.37202
 C   120 -- C   395       -0.10      5.37202
 C    55 -- C   385       -0.10      5.37202
 C   119 -- C   394       -0.10      5.37202
 C   118 -- C   393       -0.10      5.37202
 C   117 -- C   392       -0.10      5.37202
 C    54 -- C   384       -0.10      5.37202
 C   116 -- C   391       -0.10      5.37202
 C    53 -- C   383       -0.10      5.37202
 C    52 -- C   382       -0.10      5.37202
 C    51 -- C   381       -0.10      5.37202
 C   205 -- C   550       -0.10      5.37202
 C   204 -- C   549       -0.10      5.37202
 C   203 -- C   548       -0.10      5.37202
 C   202 -- C   547       -0.10      5.37202
 C   201 -- C   546       -0.10      5.37202
 C    95 -- C   365       -0.10      5.37202
 C    94 -- C   364       -0.10      5.37202
 C    93 -- C   363       -0.10      5.37202
 C    92 -- C   362       -0.10      5.37202
 C    91 -- C   361       -0.10      5.37202
 C    65 -- C   395       -0.10      5.37202
 C    64 -- C   394       -0.10      5.37202
 C    63 -- C   393       -0.10      5.37202
 C    30 -- C   355       -0.10      5.37202
 C    62 -- C   392       -0.10      5.37202
 C    61 -- C   391       -0.10      5.37202
 C    29 -- C   354       -0.10      5.37202
 C   260 -- C   550       -0.10      5.37202
 C   259 -- C   549       -0.10      5.37202
 C    28 -- C   353       -0.10      5.37202
 C   258 -- C   548       -0.10      5.37202
 C   257 -- C   547       -0.10      5.37202
 C   256 -- C   546       -0.10      5.37202
 C    27 -- C   352       -0.10      5.37202
 C    26 -- C   351       -0.10      5.37202
 C    55 -- C   335       -0.10      5.37202
 C    54 -- C   334       -0.10      5.37202
 C    53 -- C   333       -0.10      5.37202
 C   230 -- C   580       -0.10      5.37202
 C   230 -- C   525       -0.10      5.37202
 C   229 -- C   579       -0.10      5.37202
 C   229 -- C   524       -0.10      5.37202
 C   228 -- C   578       -0.10      5.37202
 C    52 -- C   332       -0.10      5.37202
 C   228 -- C   523       -0.10      5.37202
 C   227 -- C   577       -0.10      5.37202
 C   227 -- C   522       -0.10      5.37202
 C   226 -- C   576       -0.10      5.37202
 C   226 -- C   521       -0.10      5.37202
 C    51 -- C   331       -0.10      5.37202
 C    23 -- C   478       -0.10      5.37202
 C    49 -- C   469       -0.10      5.37202
 C    11 -- C   331       -0.10      5.37202
 C    48 -- C   468       -0.10      5.37202
 C    47 -- C   467       -0.10      5.37202
 C    22 -- C   477       -0.10      5.37202
 C    46 -- C   466       -0.10      5.37202
 C    21 -- C   476       -0.10      5.37202
 C    40 -- C   365       -0.10      5.37202
 C    39 -- C   364       -0.10      5.37202
 C    38 -- C   363       -0.10      5.37202
 C    37 -- C   362       -0.10      5.37202
 C    36 -- C   361       -0.10      5.37202
 C    15 -- C   335       -0.10      5.37202
 C    65 -- C   345       -0.10      5.37202
 C    64 -- C   344       -0.10      5.37202
 C    63 -- C   343       -0.10      5.37202
 C    30 -- C   325       -0.10      5.37202
 C    14 -- C   334       -0.10      5.37202
 C    62 -- C   342       -0.10      5.37202
 C    61 -- C   341       -0.10      5.37202
 C    29 -- C   324       -0.10      5.37202
 C    28 -- C   323       -0.10      5.37202
 C    13 -- C   333       -0.10      5.37202
 C    27 -- C   322       -0.10      5.37202
 C    26 -- C   321       -0.10      5.37202
 C    25 -- C   480       -0.10      5.37202
 C    12 -- C   332       -0.10      5.37202
 C    24 -- C   479       -0.10      5.37202
 C    50 -- C   470       -0.10      5.37202
 C    24 -- C   449       -0.10      5.37202
 C     6 -- C   416       -0.10      5.37202
 C    23 -- C   448       -0.10      5.37202
 C    22 -- C   447       -0.10      5.37202
 C    10 -- C   470       -0.10      5.37202
 C     5 -- C   450       -0.10      5.37202
 C    21 -- C   446       -0.10      5.37202
 C    10 -- C   420       -0.10      5.37202
 C     9 -- C   469       -0.10      5.37202
 C     9 -- C   419       -0.10      5.37202
 C     8 -- C   468       -0.10      5.37202
 C     4 -- C   449       -0.10      5.37202
 C   150 -- C   440       -0.10      5.37202
 C   149 -- C   439       -0.10      5.37202
 C   148 -- C   438       -0.10      5.37202
 C   147 -- C   437       -0.10      5.37202
 C     8 -- C   418       -0.10      5.37202
 C   146 -- C   436       -0.10      5.37202
 C     2 -- C   447       -0.10      5.37202
 C   135 -- C   460       -0.10      5.37202
 C     7 -- C   467       -0.10      5.37202
 C   134 -- C   459       -0.10      5.37202
 C   133 -- C   458       -0.10      5.37202
 C   132 -- C   457       -0.10      5.37202
 C   131 -- C   456       -0.10      5.37202
 C     7 -- C   417       -0.10      5.37202
 C     1 -- C   446       -0.10      5.37202
 C     6 -- C   466       -0.10      5.37202
 C    25 -- C   450       -0.10      5.37202
 C     3 -- C   448       -0.10      5.37202
 C   106 -- C   436       -0.10      5.37202
 C   106 -- C   376       -0.10      5.37202
 C    80 -- C   410       -0.10      5.37202
 C    79 -- C   409       -0.10      5.37202
 C    78 -- C   408       -0.10      5.37202
 C    77 -- C   407       -0.10      5.37202
 C    76 -- C   406       -0.10      5.37202
 C   135 -- C   410       -0.10      5.37202
 C   134 -- C   409       -0.10      5.37202
 C   133 -- C   408       -0.10      5.37202
 C   132 -- C   407       -0.10      5.37202
 C   131 -- C   406       -0.10      5.37202
 C   110 -- C   440       -0.10      5.37202
 C   110 -- C   380       -0.10      5.37202
 C   109 -- C   439       -0.10      5.37202
 C   109 -- C   379       -0.10      5.37202
 C   108 -- C   438       -0.10      5.37202
 C   108 -- C   378       -0.10      5.37202
 C   107 -- C   437       -0.10      5.37202
 C   107 -- C   377       -0.10      5.37202
 C   215 -- C   635       -0.10      5.38000
 C   214 -- C   634       -0.10      5.38000
 C   213 -- C   633       -0.10      5.38000
 C   212 -- C   632       -0.10      5.38000
 C   211 -- C   631       -0.10      5.38000
 C   190 -- C   620       -0.10      5.38000
 C   189 -- C   619       -0.10      5.38000
 C   188 -- C   618       -0.10      5.38000
 C   187 -- C   617       -0.10      5.38000
 C   186 -- C   616       -0.10      5.38000
 C   175 -- C   595       -0.10      5.38000
 C   174 -- C   594       -0.10      5.38000
 C   173 -- C   593       -0.10      5.38000
 C   172 -- C   592       -0.10      5.38000
 C   171 -- C   591       -0.10      5.38000
 C   245 -- C   640       -0.10      5.38000
 C   244 -- C   639       -0.10      5.38000
 C   243 -- C   638       -0.10      5.38000
 C   242 -- C   637       -0.10      5.38000
 C   241 -- C   636       -0.10      5.38000
==================================================


=================== Orbital energy and occupancy information ===================

      Total number of orbitals:    2560
        Occupancy sum (kernel):    1279.999999999
   Occupancy sum (eigenvalues):    1279.999999999
                 HOMO-LUMO gap:       0.064965109 Eh
                 Mid-gap level:       0.237828134 Eh

                        Orbital | Energy (Eh) | Occupancy
                            1    -0.482847776   1.0000000
                        .......   ...........   .........
                         1271     0.200351267   0.9999889
                         1272     0.200386891   0.9999888
                         1273     0.200825710   0.9999871
                         1274     0.200861375   0.9999870
                         1275     0.203865223   0.9999663
                         1276     0.203871899   0.9999662
                         1277     0.204333322   0.9999610
                         1278     0.204340023   0.9999609
                         1279     0.204883179   0.9999535
                         1280     0.205345579   0.9999462
                        ....... -- gap at 0K -- .........
                         1281     0.270310689   0.0000229
                         1282     0.270345403   0.0000226
                         1283     0.270553947   0.0000212
                         1284     0.270588467   0.0000210
                         1285     0.270831115   0.0000194
                         1286     0.270844753   0.0000194
                         1287     0.271086537   0.0000179
                         1288     0.271100449   0.0000179
                         1289     0.271213483   0.0000172
                         1290     0.271253284   0.0000170
                        .......   ...........   .........
                         2560     1.137669100   0.0000000

================================================================================

===================== Writing canonical molecular orbitals =====================
| Orbital  Energy (eV)  Norm     |
| HOMO      5.58773754  1.000000 | Writing "3.5418184_GO_manual_4x64graphite_HOMO.cube" ... done
Writing "3.5418184_GO_manual_4x64graphite_HOMO.dx" ... done
| LUMO      7.35552811  1.000000 | Writing "3.5418184_GO_manual_4x64graphite_LUMO.cube" ... done
Writing "3.5418184_GO_manual_4x64graphite_LUMO.dx" ... done
================================================================================
 
===================== Density of States (DOS) calculation ======================
Writing "3.5418184_GO_manual_4x64graphite_DOS.txt" ...  done
================================================================================
 
Writing bands to file "3.5418184_GO_manual_4x64graphite.val_bands" ... done
 
================ Projected Density of States (pDOS) calculation ================
 
Constructing AM resolved functions  ...... done
Writing NGWF plot files in formats: CUBE DX ...  done
 
Performing overlap integrals ...  done
 
Computing pDOS weights ...  done
 
All bands spilling parameter =   3.49 %
Occupancy-weighted spilling parameter =   0.88 %
 
 => Outputting data for OptaDOS <=
 
Writing pDOS weights to file "3.5418184_GO_manual_4x64graphite.val_pdos_bin" ... done
 
Writing band gradients to file "3.5418184_GO_manual_4x64graphite.val_dome_bin" ... done
 
Writing Castep output cell file to "3.5418184_GO_manual_4x64graphite-out.cell" ... done
 
 => Computing Gaussian smeared pDOS <= 
Writing "3.5418184_GO_manual_4x64graphite_PDOS.txt" ...  done
 
 => Computing Occupancy-weighted Gaussian smeared pDOS <= 
Writing "3.5418184_GO_manual_4x64graphite_occ_PDOS.txt" ...  done
  => Band centres: 
 S band centre of group 1:  -13.727010 eV
 P band centre of group 1:   -6.655616 eV
  Band centres done. <=
  => Integrated number of electrons in each AM band: 
 S num electrons of group 1:  571.473430
 P num electrons of group 1: 1965.872122
  Integrated number of electrons done. <=
================================================================================

------------------------------ TIMING INFORMATION ------------------------------
AVERAGE TIME:    3566.478s on     40 node(s)                                    
TOTAL TIME:      3566.479s on     40 node(s)                                    
================= AVERAGE TIMINGS FROM ALL NODES (CUMULATIVE) ==================
|| TAG                                    #calls    cpu time   %total  Gflops ||
|| work_imbalance                       :     1        0.00s   0.000%  ------ ||
|| paw_tcore_hartree_on_grid            :     1        0.00s   0.000%  ------ ||
|| paw_tcore_density                    :     1        0.01s   0.000%  ------ ||
|| paw_sphere_density_on_grid           :     1        0.01s   0.000%  ------ ||
|| sparse_set_to_garbage                :   159        0.03s   0.001%  ------ ||
|| paw_dij_hartree                      :   327        0.04s   0.001%  ------ ||
|| pseudo_make_structure_factor         :     1        0.06s   0.002%  ------ ||
|| basis_extract_function_from_box      :  1792        0.07s   0.002%  ------ ||
|| paw_species_calc_proj_prec_mat       :     1        0.12s   0.003%  ------ ||
|| paw_dataset_init                     :     1        0.15s   0.004%  ------ ||
|| density_init_guess_real              :     1        0.17s   0.005%  ------ ||
|| restart_kernel_write                 :    15        0.65s   0.018%  ------ ||
|| ngwfs_initialise_from_radial         :     2        0.67s   0.019%  ------ ||
|| sparse_init                          :     1        0.94s   0.026%  ------ ||
|| dense_normal_eigensolve              :     1        1.02s   0.028%  ------ ||
|| hartree_on_grid                      :   246        1.29s   0.036%  ------ ||
|| projectors_init_fftbox_recip         :   141        2.71s   0.076%  ------ ||
|| ewald_calculate_energy               :     1        3.12s   0.088%  ------ ||
|| fourier_apply_box_pair               :  2656        4.39s   0.123% 561.354 ||
|| basis_copy_function_to_box           : 23296        5.03s   0.141%  ------ ||
|| augmentation_screen_dij              :   251        5.38s   0.151%  ------ ||
|| sw_init                              :     1        6.73s   0.189%  ------ ||
|| sparse_embed_hotelling_invert_embed  :    27        7.54s   0.212%  ------ ||
|| ngwf_gradient_coeffs                 :    14       10.02s   0.281%  ------ ||
|| fourier_apply_cell_backward          :  7597       14.09s   0.395%  67.085 ||
|| sparse_trace                         :  2962       14.21s   0.398%  ------ ||
|| cell_grid_extract_box_real           :  9788       15.25s   0.428%  ------ ||
|| fourier_apply_cell_forward           :  7106       16.04s   0.450%  55.113 ||
|| cell_grid_deposit_box_real           : 31664       20.98s   0.588%  ------ ||
|| paw_dij_xc                           :   327       26.67s   0.748%  ------ ||
|| aug_nonlocal_mat                     :   313       36.80s   1.032%  ------ ||
|| density_fftbox_deposit_to_cell       : 15744       42.45s   1.190%  ------ ||
|| augmentation_density_on_grid         :   246       44.01s   1.234%  ------ ||
|| hamiltonian_energy_components        :     3       46.91s   1.315%  ------ ||
|| eigenstates_pdos                     :     1       52.43s   1.470%  ------ ||
|| function_ops_brappd_ketppd           :    56       52.57s   1.474%  ------ ||
|| eigenstates_calculate                :     1       56.74s   1.591%  ------ ||
|| projectors_func_ovlp_box             :    28       61.90s   1.736%  ------ ||
|| nlxc_vdw_energy                      :   490       71.14s   1.995%  ------ ||
|| xc_energy_potential                  :   245       72.08s   2.021%  ------ ||
|| integrals_kinetic                    :    27       88.22s   2.474%  ------ ||
|| properties_calculate                 :     1      102.75s   2.881%  ------ ||
|| dense_eigensolve                     :   215      104.16s   2.921%  ------ ||
|| potential_apply_to_ngwf_batch        :   304      118.61s   3.326%  ------ ||
|| sparse_product                       :  3004      121.31s   3.402%  ------ ||
|| restart_ngwfs_tightbox_output        :    13      143.51s   4.024%  ------ ||
|| basis_dot_function_with_box          : 7.305M     198.55s   5.567%  ------ ||
|| fourier_apply_box                    : 73504      227.88s   6.389% 978.893 ||
|| edft_diag_ngwf_ham                   :   214      235.38s   6.600%  ------ ||
|| projectors_gradient_batch            :    56      252.23s   7.072%  ------ ||
|| integrals_locpot_mat_els_batch       :   304      255.83s   7.173%  ------ ||
|| density_fftbox_interpolate_multiply  : 15744      304.41s   8.535%  ------ ||
|| projectors_grad_precond_batch        :    56      347.22s   9.736%  ------ ||
|| integrals_locpot_dbl_grid            :    76      375.87s  10.539%  ------ ||
|| density_batch_interp_deposit         :   984      385.49s  10.809%  ------ ||
|| edft_apply_smearing_operator         :   214      460.61s  12.915%  ------ ||
|| basis_add_function_to_box            : 20.87M     548.95s  15.392%  ------ ||
|| ngwf_gradient_build_batch            :    56      641.80s  17.995%  ------ ||
|| density_batch_row_sums               :   984      744.63s  20.879%  ------ ||
|| ngwf_gradient_batch                  :    56      850.89s  23.858%  ------ ||
|| ngwf_gradient_lnv                    :    14      881.35s  24.712%  ------ ||
|| density_on_dbl_grid                  :   246     1142.96s  32.047%  ------ ||
|| hamiltonian_lhxc_calculate           :   241     1242.52s  34.839%  ------ ||
|| edft_calculate                       :    14     2068.99s  58.012%  ------ ||
|| ngwf_cg_optimise                     :     1     3443.98s  96.565%  ------ ||
|| total_time                           :     1     3566.48s 100.000%  ------ ||
================================================================================
Overhead of generating timer report: 
- 0 ms averaging over threads,
- 5 ms ensuring consistency across MPI ranks,
- 0 ms printing in order.

Job completed: 21-02-2020 19:50 (-0000)

