 +---------------------------------------------------------------+
 |                                                               |
 |        ####### #     # ####### ####### ####### ######         |
 |        #     # ##    # #          #    #       #     #        |
 |        #     # # #   # #          #    #       #     #        |
 |        #     # #  #  # #####      #    #####   ######         |
 |        #     # #   # # #          #    #       #              |
 |        #     # #    ## #          #    #       #              |
 |        ####### #     # #######    #    ####### #              |
 |                                                               |
 |        Linear-Scaling Ab Initio Total Energy Program          |
 |                                                               |
 |          Release for academic collaborators of ODG            |
 |                                             Version 5.3.2.12  |
 |                                                               |
 +---------------------------------------------------------------+
 |                                                               |
 |  Authors:                                                     |
 |  Jacek Dziedzic, Peter D. Haynes, Nicholas D. M. Hine,        |
 |  Arash. A. Mostofi, Mike C. Payne and Chris-Kriton Skylaris   |
 |                                                               |
 |  Contributors:                                                |
 |  J. Aarons, L. Andrinopoulos, P. W. Avraam, R. A. Bell,       |
 |  A. Bhandari, G. A. Bramley, R. J. Charlton, S. J. Clark,     |
 |  R. J. Clements, G. C. Constantinescu, F. Corsetti,           |
 |  N. Corsini, O. Dieguez, S. M. M. Dubois, K. K. B. Duff,      |
 |  J. M. Escartin, A. Greco, H. Helal, Q. O. Hill, L. P. Lee,   |
 |  J.-H. Li, E. B. Linscott, G. Moynihan, D. D. O`Regan,        |
 |  O. K. Okan, M. J. S. Phipps, C. J. Pickard,                  |
 |  J. C. A. Prentice, M. I. J. Probert, L. E. Ratcliff,         |
 |  M. Robinson, A. Ruiz Serrano, J. S. Spencer, E. W. Tait,     |
 |  G. Teobaldi, D. Turban, V. Vitale, K. A. Wilkinson,          |
 |  C. Weber, J. C. Womack, N. Yeung and T. J. Zuehlsdorff       |
 |                                                               |
 |                                   Copyright (c) 2004-2020     |
 |                                                               |
 |  Please cite:                                                 |
 |  "Introducing ONETEP: Linear-scaling density functional       |
 |   simulations on parallel computers".                         |
 |   C.-K. Skylaris, P. D. Haynes, A. A. Mostofi, M. C. Payne.   |
 |   J. Chem. Phys. 122 084119 (2005).                           |
 |                                                               |
 |          in all publications arising from your use of ONETEP. |
 |                                                               |
 +---------------------------------------------------------------+
 |                                                               |
 |   ONETEP is based on developments described in the following  |
 |   publications:                                               |
 |                                                               |
 |  "Nonorthogonal generalized Wannier function pseudopotential  |
 |   plane-wave method".                                         |
 |   C.-K. Skylaris, A. A. Mostofi, P. D. Haynes, O. Dieguez,    |
 |   M. C. Payne.                                                |
 |   Phys. Rev. B 66 035119 (2002).                              |
 |                                                               |
 |  "Preconditioned iterative minimization for linear-scaling    |
 |   electronic structure calculations".                         |
 |   A. A. Mostofi, P. D. Haynes, C.-K. Skylaris, M. C. Payne.   |
 |   J. Chem. Phys. 119(17), pp.8842-8848 (2003).                |
 |                                                               |
 |  "Total-energy calculations on a real space grid with         |
 |   localized functions and a plane-wave basis".                |
 |   A. A. Mostofi, C.-K. Skylaris, P. D. Haynes, M. C. Payne.   |
 |   Comput. Phys. Commun. 147, pp.788-802 (2002).               |
 |                                                               |
 |  "Accurate kinetic energy evaluation in electronic structure  |
 |   calculations with localized functions on real space grids"  |
 |   C.-K. Skylaris, A. A. Mostofi, P. D. Haynes, C. J. Pickard, |
 |   M. C. Payne.                                                |
 |   Comput. Phys. Commun. 140, pp.315-322 (2001).               |
 |                                                               |
 |  "Accurate ionic forces and geometry optimization in linear-  |
 |   scaling density-functional theory with local orbitals"      |
 |   N. D. M. Hine, M. Robinson, P. D. Haynes, C.-K. Skylaris,   |
 |   M. C. Payne, and A. A. Mostofi.                             |
 |   Phys. Rev. B 83 195102 (2011).                              |
 |                                                               |
 +---------------------------------------------------------------+

Job started: 29-02-2020 04:15 (-0000)
 
Reading parameters from file "3.756468_GO_manual_4x64graphite.dat" ...

WARNING: "cutoff_energy" not specified, but "psinc_spacing" specified.
         Using the latter to set the KE cutoff energy to  732.32021eV,
         thus *overriding* the default.

... done

If your calculation crashes here, before "Checking processes and threads..."
is displayed, then your stack size is insufficient.
If so, use "ulimit -s unlimited" at runtime.
You can disable this check with "check_stack_size F".

Checking processes and threads...
   Determining the default number of threads...
      No default threads set at compilation time: defaulting to 1.
      OpenMP library call suggests 4 threads.
      Hybrid MPI-OpenMP compilation detected.
      Number of MPI processes > 1.
      OMP_NUM_THREADS environment variable present and
      its value matches the one obtained from the OpenMP library call.
      Using this value as default.
      Default threads: 4
      Default applies to threads_max and threads_num_fftboxes.
      Settings in the input file override this default.
   ... done

   Running with 40 MPI processes.
   There are 10 MPI processes running on the same node as the root process.
   Each MPI process is using: 
               1 threads for simulation cell FFTs.
               1 threads for parallel FFT box operations.
               4 threads for loops over batched FFT box operations.
               4 threads in other parallel regions.
... done

Basic input checks...
Resetting ngwf_cg_rotate to TRUE for EDFT calculations
... done

Reading geometry and species blocks from file "3.756468_GO_manual_4x64graphite.dat" ...
    
  PSINC grid spacing along a1 set to   0.511215680000a0 from input file.
  PSINC grid spacing along a2 set to   0.531284090000a0 from input file.
  PSINC grid spacing along a3 set to   0.507050730000a0 from input file.
  Number of PPD points along a3 set to 1.  This is 
  the default value, it may have been provided also in the input file.
... done
 Writing xyz coordinates to file "3.756468_GO_manual_4x64graphite.xyz" ... done


--------------------------------------------------------------------------------
---------------------------------- INPUT FILE ----------------------------------
--------------------------------------------------------------------------------

task : singlepoint                                                              
do_properties : true                                                            
dx_format T                                                                     
edft T                                                                          
output_detail VERBOSE                                                           
write_xyz T                                                                     
xc_functional AVV10S                                                            
PSINC_SPACING 0.51121568 0.53128409 0.50705073                                  
paw T                                                                           
pdos_max_l = 2                                                                  
dos_smear  0.1 eV                                                               
popn_calculate T                                                                
PDOS_PSEUDOATOMIC T                                                             
PDOS_REDUCE_SWS F                                                               
PDOS_CONSTRUCT_BASIS F                                                          
PDOS_LOWDIN T                                                                   
PDOS_ORTH_ATOM_BLOCKS F                                                         
PDOS_LCAO_OPTIMIZE F                                                            
pdos_optados_output T                                                           
homo_plot 0                                                                     
lumo_plot 0                                                                     
homo_dens_plot -1                                                               
lumo_dens_plot -1                                                               
%BLOCK SPECIES                                                                  
C C 6 4 9.0                                                                     
%ENDBLOCK SPECIES                                                               
%BLOCK SPECIES_POT                                                              
C "~/pp/paw/c_pbe_abinit.paw"                                                   
%ENDBLOCK SPECIES_POT                                                           
%BLOCK SPECIES_ATOMIC_SET                                                       
C "SOLVE conf=2s2 2p2"                                                          
%ENDBLOCK SPECIES_ATOMIC_SET                                                    
%BLOCK LATTICE_CART                                                             
32.21  0.00  0.00                                                               
0.00 18.59  0.00                                                                
0.00  0.00 70.99                                                                
%ENDBLOCK LATTICE_CART                                                          
%BLOCK POSITIONS_ABS                                                            
C  0.00  0.00  3.55                                                             
C  0.00  0.00 17.75                                                             
C  0.00  0.00 31.94                                                             
C  0.00  0.00 46.14                                                             
C  0.00  0.00 60.34                                                             
C  0.00  4.65  3.55                                                             
C  0.00  4.65 17.75                                                             
C  0.00  4.65 31.94                                                             
C  0.00  4.65 46.14                                                             
C  0.00  4.65 60.34                                                             
C  4.03  2.32  3.55                                                             
C  4.03  2.32 17.75                                                             
C  4.03  2.32 31.94                                                             
C  4.03  2.32 46.14                                                             
C  4.03  2.32 60.34                                                             
C  8.05  0.00  3.55                                                             
C  8.05  0.00 17.75                                                             
C  8.05  0.00 31.94                                                             
C  8.05  0.00 46.14                                                             
C  8.05  0.00 60.34                                                             
C  0.00  9.30  3.55                                                             
C  0.00  9.30 17.75                                                             
C  0.00  9.30 31.94                                                             
C  0.00  9.30 46.14                                                             
C  0.00  9.30 60.34                                                             
C  4.03  6.97  3.55                                                             
C  4.03  6.97 17.75                                                             
C  4.03  6.97 31.94                                                             
C  4.03  6.97 46.14                                                             
C  4.03  6.97 60.34                                                             
C  8.05  4.65  3.55                                                             
C  8.05  4.65 17.75                                                             
C  8.05  4.65 31.94                                                             
C  8.05  4.65 46.14                                                             
C  8.05  4.65 60.34                                                             
C 12.08  2.32  3.55                                                             
C 12.08  2.32 17.75                                                             
C 12.08  2.32 31.94                                                             
C 12.08  2.32 46.14                                                             
C 12.08  2.32 60.34                                                             
C 16.10  0.00  3.55                                                             
C 16.10  0.00 17.75                                                             
C 16.10  0.00 31.94                                                             
C 16.10  0.00 46.14                                                             
C 16.10  0.00 60.34                                                             
C  0.00 13.95  3.55                                                             
C  0.00 13.95 17.75                                                             
C  0.00 13.95 31.94                                                             
C  0.00 13.95 46.14                                                             
C  0.00 13.95 60.34                                                             
C  4.03 11.62  3.55                                                             
C  4.03 11.62 17.75                                                             
C  4.03 11.62 31.94                                                             
C  4.03 11.62 46.14                                                             
C  4.03 11.62 60.34                                                             
C  8.05  9.30  3.55                                                             
C  8.05  9.30 17.75                                                             
C  8.05  9.30 31.94                                                             
C  8.05  9.30 46.14                                                             
C  8.05  9.30 60.34                                                             
C 12.08  6.97  3.55                                                             
C 12.08  6.97 17.75                                                             
C 12.08  6.97 31.94                                                             
C 12.08  6.97 46.14                                                             
C 12.08  6.97 60.34                                                             
C 16.10  4.65  3.55                                                             
C 16.10  4.65 17.75                                                             
C 16.10  4.65 31.94                                                             
C 16.10  4.65 46.14                                                             
C 16.10  4.65 60.34                                                             
C 20.13  2.32  3.55                                                             
C 20.13  2.32 17.75                                                             
C 20.13  2.32 31.94                                                             
C 20.13  2.32 46.14                                                             
C 20.13  2.32 60.34                                                             
C 24.16  0.00  3.55                                                             
C 24.16  0.00 17.75                                                             
C 24.16  0.00 31.94                                                             
C 24.16  0.00 46.14                                                             
C 24.16  0.00 60.34                                                             
C  4.03 16.27  3.55                                                             
C  4.03 16.27 17.75                                                             
C  4.03 16.27 31.94                                                             
C  4.03 16.27 46.14                                                             
C  4.03 16.27 60.34                                                             
C  8.05 13.95  3.55                                                             
C  8.05 13.95 17.75                                                             
C  8.05 13.95 31.94                                                             
C  8.05 13.95 46.14                                                             
C  8.05 13.95 60.34                                                             
C 12.08 11.62  3.55                                                             
C 12.08 11.62 17.75                                                             
C 12.08 11.62 31.94                                                             
C 12.08 11.62 46.14                                                             
C 12.08 11.62 60.34                                                             
C 16.10  9.30  3.55                                                             
C 16.10  9.30 17.75                                                             
C 16.10  9.30 31.94                                                             
C 16.10  9.30 46.14                                                             
C 16.10  9.30 60.34                                                             
C 20.13  6.97  3.55                                                             
C 20.13  6.97 17.75                                                             
C 20.13  6.97 31.94                                                             
C 20.13  6.97 46.14                                                             
C 20.13  6.97 60.34                                                             
C 24.16  4.65  3.55                                                             
C 24.16  4.65 17.75                                                             
C 24.16  4.65 31.94                                                             
C 24.16  4.65 46.14                                                             
C 24.16  4.65 60.34                                                             
C 28.18  2.32  3.55                                                             
C 28.18  2.32 17.75                                                             
C 28.18  2.32 31.94                                                             
C 28.18  2.32 46.14                                                             
C 28.18  2.32 60.34                                                             
C 12.08 16.27  3.55                                                             
C 12.08 16.27 17.75                                                             
C 12.08 16.27 31.94                                                             
C 12.08 16.27 46.14                                                             
C 12.08 16.27 60.34                                                             
C 16.10 13.95  3.55                                                             
C 16.10 13.95 17.75                                                             
C 16.10 13.95 31.94                                                             
C 16.10 13.95 46.14                                                             
C 16.10 13.95 60.34                                                             
C 20.13 11.62  3.55                                                             
C 20.13 11.62 17.75                                                             
C 20.13 11.62 31.94                                                             
C 20.13 11.62 46.14                                                             
C 20.13 11.62 60.34                                                             
C 24.16  9.30  3.55                                                             
C 24.16  9.30 17.75                                                             
C 24.16  9.30 31.94                                                             
C 24.16  9.30 46.14                                                             
C 24.16  9.30 60.34                                                             
C 28.18  6.97  3.55                                                             
C 28.18  6.97 17.75                                                             
C 28.18  6.97 31.94                                                             
C 28.18  6.97 46.14                                                             
C 28.18  6.97 60.34                                                             
C 20.13 16.27  3.55                                                             
C 20.13 16.27 17.75                                                             
C 20.13 16.27 31.94                                                             
C 20.13 16.27 46.14                                                             
C 20.13 16.27 60.34                                                             
C 24.16 13.95  3.55                                                             
C 24.16 13.95 17.75                                                             
C 24.16 13.95 31.94                                                             
C 24.16 13.95 46.14                                                             
C 24.16 13.95 60.34                                                             
C 28.18 11.62  3.55                                                             
C 28.18 11.62 17.75                                                             
C 28.18 11.62 31.94                                                             
C 28.18 11.62 46.14                                                             
C 28.18 11.62 60.34                                                             
C 28.18 16.27  3.55                                                             
C 28.18 16.27 17.75                                                             
C 28.18 16.27 31.94                                                             
C 28.18 16.27 46.14                                                             
C 28.18 16.27 60.34                                                             
C  0.00  0.00 10.65                                                             
C  0.00  0.00 24.85                                                             
C  0.00  0.00 39.04                                                             
C  0.00  0.00 53.24                                                             
C  0.00  0.00 67.44                                                             
C  0.00  4.65 10.65                                                             
C  0.00  4.65 24.85                                                             
C  0.00  4.65 39.04                                                             
C  0.00  4.65 53.24                                                             
C  0.00  4.65 67.44                                                             
C  4.03  2.32 10.65                                                             
C  4.03  2.32 24.85                                                             
C  4.03  2.32 39.04                                                             
C  4.03  2.32 53.24                                                             
C  4.03  2.32 67.44                                                             
C  8.05  0.00 10.65                                                             
C  8.05  0.00 24.85                                                             
C  8.05  0.00 39.04                                                             
C  8.05  0.00 53.24                                                             
C  8.05  0.00 67.44                                                             
C  0.00  9.30 10.65                                                             
C  0.00  9.30 24.85                                                             
C  0.00  9.30 39.04                                                             
C  0.00  9.30 53.24                                                             
C  0.00  9.30 67.44                                                             
C  4.03  6.97 10.65                                                             
C  4.03  6.97 24.85                                                             
C  4.03  6.97 39.04                                                             
C  4.03  6.97 53.24                                                             
C  4.03  6.97 67.44                                                             
C  8.05  4.65 10.65                                                             
C  8.05  4.65 24.85                                                             
C  8.05  4.65 39.04                                                             
C  8.05  4.65 53.24                                                             
C  8.05  4.65 67.44                                                             
C 12.08  2.32 10.65                                                             
C 12.08  2.32 24.85                                                             
C 12.08  2.32 39.04                                                             
C 12.08  2.32 53.24                                                             
C 12.08  2.32 67.44                                                             
C 16.10  0.00 10.65                                                             
C 16.10  0.00 24.85                                                             
C 16.10  0.00 39.04                                                             
C 16.10  0.00 53.24                                                             
C 16.10  0.00 67.44                                                             
C  0.00 13.95 10.65                                                             
C  0.00 13.95 24.85                                                             
C  0.00 13.95 39.04                                                             
C  0.00 13.95 53.24                                                             
C  0.00 13.95 67.44                                                             
C  4.03 11.62 10.65                                                             
C  4.03 11.62 24.85                                                             
C  4.03 11.62 39.04                                                             
C  4.03 11.62 53.24                                                             
C  4.03 11.62 67.44                                                             
C  8.05  9.30 10.65                                                             
C  8.05  9.30 24.85                                                             
C  8.05  9.30 39.04                                                             
C  8.05  9.30 53.24                                                             
C  8.05  9.30 67.44                                                             
C 12.08  6.97 10.65                                                             
C 12.08  6.97 24.85                                                             
C 12.08  6.97 39.04                                                             
C 12.08  6.97 53.24                                                             
C 12.08  6.97 67.44                                                             
C 16.10  4.65 10.65                                                             
C 16.10  4.65 24.85                                                             
C 16.10  4.65 39.04                                                             
C 16.10  4.65 53.24                                                             
C 16.10  4.65 67.44                                                             
C 20.13  2.32 10.65                                                             
C 20.13  2.32 24.85                                                             
C 20.13  2.32 39.04                                                             
C 20.13  2.32 53.24                                                             
C 20.13  2.32 67.44                                                             
C 24.16  0.00 10.65                                                             
C 24.16  0.00 24.85                                                             
C 24.16  0.00 39.04                                                             
C 24.16  0.00 53.24                                                             
C 24.16  0.00 67.44                                                             
C  4.03 16.27 10.65                                                             
C  4.03 16.27 24.85                                                             
C  4.03 16.27 39.04                                                             
C  4.03 16.27 53.24                                                             
C  4.03 16.27 67.44                                                             
C  8.05 13.95 10.65                                                             
C  8.05 13.95 24.85                                                             
C  8.05 13.95 39.04                                                             
C  8.05 13.95 53.24                                                             
C  8.05 13.95 67.44                                                             
C 12.08 11.62 10.65                                                             
C 12.08 11.62 24.85                                                             
C 12.08 11.62 39.04                                                             
C 12.08 11.62 53.24                                                             
C 12.08 11.62 67.44                                                             
C 16.10  9.30 10.65                                                             
C 16.10  9.30 24.85                                                             
C 16.10  9.30 39.04                                                             
C 16.10  9.30 53.24                                                             
C 16.10  9.30 67.44                                                             
C 20.13  6.97 10.65                                                             
C 20.13  6.97 24.85                                                             
C 20.13  6.97 39.04                                                             
C 20.13  6.97 53.24                                                             
C 20.13  6.97 67.44                                                             
C 24.16  4.65 10.65                                                             
C 24.16  4.65 24.85                                                             
C 24.16  4.65 39.04                                                             
C 24.16  4.65 53.24                                                             
C 24.16  4.65 67.44                                                             
C 28.18  2.32 10.65                                                             
C 28.18  2.32 24.85                                                             
C 28.18  2.32 39.04                                                             
C 28.18  2.32 53.24                                                             
C 28.18  2.32 67.44                                                             
C 12.08 16.27 10.65                                                             
C 12.08 16.27 24.85                                                             
C 12.08 16.27 39.04                                                             
C 12.08 16.27 53.24                                                             
C 12.08 16.27 67.44                                                             
C 16.10 13.95 10.65                                                             
C 16.10 13.95 24.85                                                             
C 16.10 13.95 39.04                                                             
C 16.10 13.95 53.24                                                             
C 16.10 13.95 67.44                                                             
C 20.13 11.62 10.65                                                             
C 20.13 11.62 24.85                                                             
C 20.13 11.62 39.04                                                             
C 20.13 11.62 53.24                                                             
C 20.13 11.62 67.44                                                             
C 24.16  9.30 10.65                                                             
C 24.16  9.30 24.85                                                             
C 24.16  9.30 39.04                                                             
C 24.16  9.30 53.24                                                             
C 24.16  9.30 67.44                                                             
C 28.18  6.97 10.65                                                             
C 28.18  6.97 24.85                                                             
C 28.18  6.97 39.04                                                             
C 28.18  6.97 53.24                                                             
C 28.18  6.97 67.44                                                             
C 20.13 16.27 10.65                                                             
C 20.13 16.27 24.85                                                             
C 20.13 16.27 39.04                                                             
C 20.13 16.27 53.24                                                             
C 20.13 16.27 67.44                                                             
C 24.16 13.95 10.65                                                             
C 24.16 13.95 24.85                                                             
C 24.16 13.95 39.04                                                             
C 24.16 13.95 53.24                                                             
C 24.16 13.95 67.44                                                             
C 28.18 11.62 10.65                                                             
C 28.18 11.62 24.85                                                             
C 28.18 11.62 39.04                                                             
C 28.18 11.62 53.24                                                             
C 28.18 11.62 67.44                                                             
C 28.18 16.27 10.65                                                             
C 28.18 16.27 24.85                                                             
C 28.18 16.27 39.04                                                             
C 28.18 16.27 53.24                                                             
C 28.18 16.27 67.44                                                             
C  1.34  2.32  3.55                                                             
C  1.34  2.32 17.75                                                             
C  1.34  2.32 31.94                                                             
C  1.34  2.32 46.14                                                             
C  1.34  2.32 60.34                                                             
C  5.37  0.00  3.55                                                             
C  5.37  0.00 17.75                                                             
C  5.37  0.00 31.94                                                             
C  5.37  0.00 46.14                                                             
C  5.37  0.00 60.34                                                             
C  1.34  6.97  3.55                                                             
C  1.34  6.97 17.75                                                             
C  1.34  6.97 31.94                                                             
C  1.34  6.97 46.14                                                             
C  1.34  6.97 60.34                                                             
C  5.37  4.65  3.55                                                             
C  5.37  4.65 17.75                                                             
C  5.37  4.65 31.94                                                             
C  5.37  4.65 46.14                                                             
C  5.37  4.65 60.34                                                             
C  9.39  2.32  3.55                                                             
C  9.39  2.32 17.75                                                             
C  9.39  2.32 31.94                                                             
C  9.39  2.32 46.14                                                             
C  9.39  2.32 60.34                                                             
C 13.42  0.00  3.55                                                             
C 13.42  0.00 17.75                                                             
C 13.42  0.00 31.94                                                             
C 13.42  0.00 46.14                                                             
C 13.42  0.00 60.34                                                             
C  1.34 11.62  3.55                                                             
C  1.34 11.62 17.75                                                             
C  1.34 11.62 31.94                                                             
C  1.34 11.62 46.14                                                             
C  1.34 11.62 60.34                                                             
C  5.37  9.30  3.55                                                             
C  5.37  9.30 17.75                                                             
C  5.37  9.30 31.94                                                             
C  5.37  9.30 46.14                                                             
C  5.37  9.30 60.34                                                             
C  9.39  6.97  3.55                                                             
C  9.39  6.97 17.75                                                             
C  9.39  6.97 31.94                                                             
C  9.39  6.97 46.14                                                             
C  9.39  6.97 60.34                                                             
C 13.42  4.65  3.55                                                             
C 13.42  4.65 17.75                                                             
C 13.42  4.65 31.94                                                             
C 13.42  4.65 46.14                                                             
C 13.42  4.65 60.34                                                             
C 17.45  2.32  3.55                                                             
C 17.45  2.32 17.75                                                             
C 17.45  2.32 31.94                                                             
C 17.45  2.32 46.14                                                             
C 17.45  2.32 60.34                                                             
C 21.47  0.00  3.55                                                             
C 21.47  0.00 17.75                                                             
C 21.47  0.00 31.94                                                             
C 21.47  0.00 46.14                                                             
C 21.47  0.00 60.34                                                             
C  1.34 16.27  3.55                                                             
C  1.34 16.27 17.75                                                             
C  1.34 16.27 31.94                                                             
C  1.34 16.27 46.14                                                             
C  1.34 16.27 60.34                                                             
C  5.37 13.95  3.55                                                             
C  5.37 13.95 17.75                                                             
C  5.37 13.95 31.94                                                             
C  5.37 13.95 46.14                                                             
C  5.37 13.95 60.34                                                             
C  9.39 11.62  3.55                                                             
C  9.39 11.62 17.75                                                             
C  9.39 11.62 31.94                                                             
C  9.39 11.62 46.14                                                             
C  9.39 11.62 60.34                                                             
C 13.42  9.30  3.55                                                             
C 13.42  9.30 17.75                                                             
C 13.42  9.30 31.94                                                             
C 13.42  9.30 46.14                                                             
C 13.42  9.30 60.34                                                             
C 17.45  6.97  3.55                                                             
C 17.45  6.97 17.75                                                             
C 17.45  6.97 31.94                                                             
C 17.45  6.97 46.14                                                             
C 17.45  6.97 60.34                                                             
C 21.47  4.65  3.55                                                             
C 21.47  4.65 17.75                                                             
C 21.47  4.65 31.94                                                             
C 21.47  4.65 46.14                                                             
C 21.47  4.65 60.34                                                             
C 25.50  2.32  3.55                                                             
C 25.50  2.32 17.75                                                             
C 25.50  2.32 31.94                                                             
C 25.50  2.32 46.14                                                             
C 25.50  2.32 60.34                                                             
C 29.52  0.00  3.55                                                             
C 29.52  0.00 17.75                                                             
C 29.52  0.00 31.94                                                             
C 29.52  0.00 46.14                                                             
C 29.52  0.00 60.34                                                             
C  9.39 16.27  3.55                                                             
C  9.39 16.27 17.75                                                             
C  9.39 16.27 31.94                                                             
C  9.39 16.27 46.14                                                             
C  9.39 16.27 60.34                                                             
C 13.42 13.95  3.55                                                             
C 13.42 13.95 17.75                                                             
C 13.42 13.95 31.94                                                             
C 13.42 13.95 46.14                                                             
C 13.42 13.95 60.34                                                             
C 17.45 11.62  3.55                                                             
C 17.45 11.62 17.75                                                             
C 17.45 11.62 31.94                                                             
C 17.45 11.62 46.14                                                             
C 17.45 11.62 60.34                                                             
C 21.47  9.30  3.55                                                             
C 21.47  9.30 17.75                                                             
C 21.47  9.30 31.94                                                             
C 21.47  9.30 46.14                                                             
C 21.47  9.30 60.34                                                             
C 25.50  6.97  3.55                                                             
C 25.50  6.97 17.75                                                             
C 25.50  6.97 31.94                                                             
C 25.50  6.97 46.14                                                             
C 25.50  6.97 60.34                                                             
C 29.52  4.65  3.55                                                             
C 29.52  4.65 17.75                                                             
C 29.52  4.65 31.94                                                             
C 29.52  4.65 46.14                                                             
C 29.52  4.65 60.34                                                             
C 17.45 16.27  3.55                                                             
C 17.45 16.27 17.75                                                             
C 17.45 16.27 31.94                                                             
C 17.45 16.27 46.14                                                             
C 17.45 16.27 60.34                                                             
C 21.47 13.95  3.55                                                             
C 21.47 13.95 17.75                                                             
C 21.47 13.95 31.94                                                             
C 21.47 13.95 46.14                                                             
C 21.47 13.95 60.34                                                             
C 25.50 11.62  3.55                                                             
C 25.50 11.62 17.75                                                             
C 25.50 11.62 31.94                                                             
C 25.50 11.62 46.14                                                             
C 25.50 11.62 60.34                                                             
C 29.52  9.30  3.55                                                             
C 29.52  9.30 17.75                                                             
C 29.52  9.30 31.94                                                             
C 29.52  9.30 46.14                                                             
C 29.52  9.30 60.34                                                             
C 25.50 16.27  3.55                                                             
C 25.50 16.27 17.75                                                             
C 25.50 16.27 31.94                                                             
C 25.50 16.27 46.14                                                             
C 25.50 16.27 60.34                                                             
C 29.52 13.95  3.55                                                             
C 29.52 13.95 17.75                                                             
C 29.52 13.95 31.94                                                             
C 29.52 13.95 46.14                                                             
C 29.52 13.95 60.34                                                             
C  2.68  0.00 10.65                                                             
C  2.68  0.00 24.85                                                             
C  2.68  0.00 39.04                                                             
C  2.68  0.00 53.24                                                             
C  2.68  0.00 67.44                                                             
C  2.68  4.65 10.65                                                             
C  2.68  4.65 24.85                                                             
C  2.68  4.65 39.04                                                             
C  2.68  4.65 53.24                                                             
C  2.68  4.65 67.44                                                             
C  6.71  2.32 10.65                                                             
C  6.71  2.32 24.85                                                             
C  6.71  2.32 39.04                                                             
C  6.71  2.32 53.24                                                             
C  6.71  2.32 67.44                                                             
C 10.74  0.00 10.65                                                             
C 10.74  0.00 24.85                                                             
C 10.74  0.00 39.04                                                             
C 10.74  0.00 53.24                                                             
C 10.74  0.00 67.44                                                             
C  2.68  9.30 10.65                                                             
C  2.68  9.30 24.85                                                             
C  2.68  9.30 39.04                                                             
C  2.68  9.30 53.24                                                             
C  2.68  9.30 67.44                                                             
C  6.71  6.97 10.65                                                             
C  6.71  6.97 24.85                                                             
C  6.71  6.97 39.04                                                             
C  6.71  6.97 53.24                                                             
C  6.71  6.97 67.44                                                             
C 10.74  4.65 10.65                                                             
C 10.74  4.65 24.85                                                             
C 10.74  4.65 39.04                                                             
C 10.74  4.65 53.24                                                             
C 10.74  4.65 67.44                                                             
C 14.76  2.32 10.65                                                             
C 14.76  2.32 24.85                                                             
C 14.76  2.32 39.04                                                             
C 14.76  2.32 53.24                                                             
C 14.76  2.32 67.44                                                             
C 18.79  0.00 10.65                                                             
C 18.79  0.00 24.85                                                             
C 18.79  0.00 39.04                                                             
C 18.79  0.00 53.24                                                             
C 18.79  0.00 67.44                                                             
C  2.68 13.95 10.65                                                             
C  2.68 13.95 24.85                                                             
C  2.68 13.95 39.04                                                             
C  2.68 13.95 53.24                                                             
C  2.68 13.95 67.44                                                             
C  6.71 11.62 10.65                                                             
C  6.71 11.62 24.85                                                             
C  6.71 11.62 39.04                                                             
C  6.71 11.62 53.24                                                             
C  6.71 11.62 67.44                                                             
C 10.74  9.30 10.65                                                             
C 10.74  9.30 24.85                                                             
C 10.74  9.30 39.04                                                             
C 10.74  9.30 53.24                                                             
C 10.74  9.30 67.44                                                             
C 14.76  6.97 10.65                                                             
C 14.76  6.97 24.85                                                             
C 14.76  6.97 39.04                                                             
C 14.76  6.97 53.24                                                             
C 14.76  6.97 67.44                                                             
C 18.79  4.65 10.65                                                             
C 18.79  4.65 24.85                                                             
C 18.79  4.65 39.04                                                             
C 18.79  4.65 53.24                                                             
C 18.79  4.65 67.44                                                             
C 22.81  2.32 10.65                                                             
C 22.81  2.32 24.85                                                             
C 22.81  2.32 39.04                                                             
C 22.81  2.32 53.24                                                             
C 22.81  2.32 67.44                                                             
C 26.84  0.00 10.65                                                             
C 26.84  0.00 24.85                                                             
C 26.84  0.00 39.04                                                             
C 26.84  0.00 53.24                                                             
C 26.84  0.00 67.44                                                             
C  6.71 16.27 10.65                                                             
C  6.71 16.27 24.85                                                             
C  6.71 16.27 39.04                                                             
C  6.71 16.27 53.24                                                             
C  6.71 16.27 67.44                                                             
C 10.74 13.95 10.65                                                             
C 10.74 13.95 24.85                                                             
C 10.74 13.95 39.04                                                             
C 10.74 13.95 53.24                                                             
C 10.74 13.95 67.44                                                             
C 14.76 11.62 10.65                                                             
C 14.76 11.62 24.85                                                             
C 14.76 11.62 39.04                                                             
C 14.76 11.62 53.24                                                             
C 14.76 11.62 67.44                                                             
C 18.79  9.30 10.65                                                             
C 18.79  9.30 24.85                                                             
C 18.79  9.30 39.04                                                             
C 18.79  9.30 53.24                                                             
C 18.79  9.30 67.44                                                             
C 22.81  6.97 10.65                                                             
C 22.81  6.97 24.85                                                             
C 22.81  6.97 39.04                                                             
C 22.81  6.97 53.24                                                             
C 22.81  6.97 67.44                                                             
C 26.84  4.65 10.65                                                             
C 26.84  4.65 24.85                                                             
C 26.84  4.65 39.04                                                             
C 26.84  4.65 53.24                                                             
C 26.84  4.65 67.44                                                             
C 30.86  2.32 10.65                                                             
C 30.86  2.32 24.85                                                             
C 30.86  2.32 39.04                                                             
C 30.86  2.32 53.24                                                             
C 30.86  2.32 67.44                                                             
C 14.76 16.27 10.65                                                             
C 14.76 16.27 24.85                                                             
C 14.76 16.27 39.04                                                             
C 14.76 16.27 53.24                                                             
C 14.76 16.27 67.44                                                             
C 18.79 13.95 10.65                                                             
C 18.79 13.95 24.85                                                             
C 18.79 13.95 39.04                                                             
C 18.79 13.95 53.24                                                             
C 18.79 13.95 67.44                                                             
C 22.81 11.62 10.65                                                             
C 22.81 11.62 24.85                                                             
C 22.81 11.62 39.04                                                             
C 22.81 11.62 53.24                                                             
C 22.81 11.62 67.44                                                             
C 26.84  9.30 10.65                                                             
C 26.84  9.30 24.85                                                             
C 26.84  9.30 39.04                                                             
C 26.84  9.30 53.24                                                             
C 26.84  9.30 67.44                                                             
C 30.86  6.97 10.65                                                             
C 30.86  6.97 24.85                                                             
C 30.86  6.97 39.04                                                             
C 30.86  6.97 53.24                                                             
C 30.86  6.97 67.44                                                             
C 22.81 16.27 10.65                                                             
C 22.81 16.27 24.85                                                             
C 22.81 16.27 39.04                                                             
C 22.81 16.27 53.24                                                             
C 22.81 16.27 67.44                                                             
C 26.84 13.95 10.65                                                             
C 26.84 13.95 24.85                                                             
C 26.84 13.95 39.04                                                             
C 26.84 13.95 53.24                                                             
C 26.84 13.95 67.44                                                             
C 30.86 11.62 10.65                                                             
C 30.86 11.62 24.85                                                             
C 30.86 11.62 39.04                                                             
C 30.86 11.62 53.24                                                             
C 30.86 11.62 67.44                                                             
C 30.86 16.27 10.65                                                             
C 30.86 16.27 24.85                                                             
C 30.86 16.27 39.04                                                             
C 30.86 16.27 53.24                                                             
C 30.86 16.27 67.44                                                             
%ENDBLOCK POSITIONS_ABS                                                         

--------------------------------------------------------------------------------
-------------------------------- END INPUT FILE --------------------------------
--------------------------------------------------------------------------------


 
<<<<<<<<<<<<<<<<<<<<<<<<<<<<<<<<< Full system >>>>>>>>>>>>>>>>>>>>>>>>>>>>>>>>>>
<<<<<<<<<<<<<<<<<<<<<<<<<<< PAW Dataset information >>>>>>>>>>>>>>>>>>>>>>>>>>>
File: ~/pp/paw/c_pbe_abinit.paw; rc = 1.25 bohr; shape type =  3; rshape = 1.25 bohr;
  Atomic number:  6;  ionic charge:  4.000000
    Partial Wave 1: l = 0
    Partial Wave 2: l = 0
    Partial Wave 3: l = 1
    Partial Wave 4: l = 1
  Core charge supplied for Nonlinear Core Corrections
<<<<<<<<<<<<<<<<<<<<<<<<<<<<<<<<<<<<<<< >>>>>>>>>>>>>>>>>>>>>>>>>>>>>>>>>>>>>>>

-------------------------- Atom counting information ---------------------------
Symbol    Natoms    Nngwfs    Nprojs
  C        640      2560      5120
.......   ......    ......    ......
Totals:    640      2560      5120
--------------------------------------------------------------------------------

=============================== PSINC grid sizes ===============================
                      Simulation cell:   63 x  35 x 140
                              FFT-box:   63 x  35 x 117
                                  PPD:    7 x   5 x   1
Grid space d1=  0.511269841270a0 (KE cutoff=  29.06054Eh = 790.77748eV)
Grid space d2=  0.531142857143a0 (KE cutoff=  26.92659Eh = 732.70972eV)
Grid space d3=  0.507071428571a0 (KE cutoff=  29.54376Eh = 803.92653eV)
================================================================================
  
WARNING in cell_grid_distribute:
Average of less than one 23-slab per node, so workload cannot be
equally balanced between nodes.

********************* Fourier parallelisation information **********************
       Coarse grid (whole simulation cell) dimensions:     63    35   140
          Real-space ('12') slabs/node (min max mean):      3     4     3
         Recip-space ('23') slabs/node (min max mean):      0     1     0
********************************************************************************

********************* Fourier parallelisation information **********************
       Double grid (whole simulation cell) dimensions:    126    70   280
          Real-space ('12') slabs/node (min max mean):      7     7     7
         Recip-space ('23') slabs/node (min max mean):      1     2     1
********************************************************************************

Atom SCF Calculation for C  : Z (AE atom) =   6 : Z (PS atom) =   4
Config String: 2s2 2p2
Orbitals (num,occ):  2     2.00 2.00
Orbitals   (num,l):  2        0    1
Real-space Grid (nr,dr,rmax): 1293    0.0069659443    9.0000000000
Spherical Bessel Basis (nsws,lmax,cutoff):   37    2  161.4736382572
Confining potential (l,width,scale):  0    3.0000000000  100.0000000000
Confining potential (l,width,scale):  1    3.0000000000  100.0000000000
  1         -5.4129360987   -1.2444937266    4.5135257941   -1.5420271367
  2         -5.3444202281   -1.3377187790    4.4131101426   -1.5071921700
  3         -5.3525226456   -1.3566567794    4.3924752240   -1.5004938544
  4         -5.3561013121   -1.3623552809    4.3862114699   -1.4986199617
  5         -5.3580093800   -1.3653574582    4.3828991843   -1.4976654093
  6         -5.3590276761   -1.3669475005    4.3811409016   -1.4971696795
  7         -5.3595688314   -1.3677934914    4.3802040659   -1.4969088858
  8         -5.3598556216   -1.3682449178    4.3797036984   -1.4967706290
  9         -5.3600074081   -1.3684862338    4.3794360452   -1.4966970063
 10         -5.3600877081   -1.3686153812    4.3792927313   -1.4966576988
 11         -5.3601301919   -1.3686845537    4.3792159394   -1.4966366788
 12         -5.3601526758   -1.3687216261    4.3791747687   -1.4966254262
 13         -5.3601645804   -1.3687415049    4.3791526850   -1.4966193980
 14         -5.3601708871   -1.3687521691    4.3791408341   -1.4966161667
 15         -5.3601742301   -1.3687578926    4.3791344719   -1.4966144337
 16         -5.3601760032   -1.3687609656    4.3791310549   -1.4966135039
 17         -5.3601769442   -1.3687626162    4.3791292190   -1.4966130048
 18         -5.3601774440   -1.3687635032    4.3791282322   -1.4966127369
 19         -5.3601777096   -1.3687639799    4.3791277016   -1.4966125929
 20         -5.3601778508   -1.3687642363    4.3791274162   -1.4966125155
 21         -5.3601779259   -1.3687643743    4.3791272626   -1.4966124740
Atom SCF converged after  21 iterations to a total energy of     -5.36017793

Determining parallel strategy ...
... using space-filling curve
... NGWF load balancing: max     64;  min     64;  average     64
... Projector load balancing: max    128;  min    128;  average    128
... done
Calculating Ewald energy ...
              Ewald: real-space energy =    9484.647111
        Ewald: reciprocal-space energy =       0.376905
         Ewald: (sum_charge)**2 Energy =   10895.174240
         Ewald: (sum_charge**2) Energy =     861.339153
                          Ewald Energy =   -2271.489376
Basis initialisation ...... NGWF spheres initialised
... Projector spheres initialised
... NGWF tight boxes initialised
... Projector tight boxes initialised
... Tight-boxes gathered
... NGWF basis size (local,global):     691956  27874240
... PAW projector initialisation
... done

============================= Charge Augmentation ==============================
                           Aug box size:   11 x  11 x  11
================================================================================

========================== Sparse matrix information ===========================
                        Overlap matrix filling:  40.94%
                        Density kernel filling: 100.00%
              NGWF-Proj overlap matrix filling:  12.19%
                    Aug Overlap matrix filling:  47.03%
                    Hamiltonian matrix filling:  47.03%
                  NGWF diagonal matrix filling:   0.16%
                             KS matrix filling: 100.00% 
                           KSKS matrix filling: 100.00% 
================================================================================

Sparse matrix initialisation ... done
NGWF initialisation ...... done
============ Calculation of NGWF S^-1 using Hotelling algorithm ================ 
         Iteration  |  Frobenius norm and Maximum abs value    (of I-S*S_n^-1)   
               1       0.48959789E+02     0.97477007E+00
               2       0.47667128E+02     0.95138015E+00
               3       0.45752799E+02     0.90927891E+00
               4       0.43305311E+02     0.83947951E+00
               5       0.40401652E+02     0.73663347E+00
               6       0.37069891E+02     0.67440324E+00
               7       0.33661055E+02     0.62850320E+00
               8       0.30429057E+02     0.59029769E+00
               9       0.26935548E+02     0.54737168E+00
              10       0.22486456E+02     0.47889999E+00
              11       0.16675139E+02     0.36995456E+00
              12       0.99675223E+01     0.22620364E+00
              13       0.40827794E+01     0.90439850E-01
              14       0.81875977E+00     0.16642534E-01
              15       0.39054587E-01     0.69189587E-03
              16       0.11324716E-03     0.15287523E-05
              17       0.14398178E-08     0.11880719E-10
              18       0.76132870E-13     0.34416914E-14
================================================================================
Calculating core density ...
================================= Core Density =================================
               Core den box size:   21 x  21 x  21
================================================================================
 ... done
Up spin density kernel initialisation ...... done

Writing density kernel to file "3.756468_GO_manual_4x64graphite.dkn" ... done

>>> Optimising kernel for current NGWFs:

--------------------------- Ensemble-DFT optimisation --------------------------
Running ScaLAPACK on   40 processor(s).

--------------------------------------------------------------------------------
  Iter                              Commutator    Free_energy(A=E-TS)     DeltaA
#    0                          0.000027521803   -3616.02031575590945  -3.62E+03

Step                       =       0.381966011250
Energy                     =   -3616.020291208867
Entropy (-TS)              =      -0.000024547140
Free energy (A=E-TS)       =   -3616.020315755909
Est. 0K Energy 0.5*(E+A)   =   -3616.020303482388
Residual Non-orthogonality =       0.000000000000
Residual N_electrons       =       0.000000000097

Spin          Integrated_Ne            Fermi_level     Delta_Fermi_level
   1      2559.999999999402         0.162919342340              1.63E-01

                           Spin 1          
     Orb      H-eigenvalues     Occupancies
       1 |    -0.5625885787    1.0000000000 | 
                          ------
    1276 |     0.1274388130    0.9999863787 | 
    1277 |     0.1280672277    0.9999833890 | 
    1278 |     0.1280736134    0.9999833555 | 
    1279 |     0.1281244939    0.9999830859 | 
    1280 |     0.1287597164    0.9999793290 | 
                 - Gap at zero temperature -
    1281 |     0.1994163048    0.0000098816 | 
    1282 |     0.1994211299    0.0000098665 | 
    1283 |     0.1994278598    0.0000098456 | 
    1284 |     0.1995417697    0.0000094977 | 
    1285 |     0.1995450837    0.0000094878 | 
                          ------
    2560 |     1.0040513244    0.0000000000 | 

                       |  Abs_value |  Threshold | Converged
     Delta_Free_energy |   3.62E+03 |   1.00E-06 |        No
     Delta_Energy      |   3.62E+03 |   1.00E-04 |        No
     Delta_Entropy     |   2.45E-05 |   1.00E-04 |       Yes
     Commutator        |   2.75E-05 |   1.00E-05 |        No
     Delta_Fermi_level |   1.63E-01 |   1.00E-03 |        No

  Line search of the free energy minimum:
  Step_type        Step             Free_energy   Predicted_free_energy
.   Initial    0.000000    -3616.02031575590945
.    Trial1    0.381966    -3616.02122373696011
.    Trial2    0.618034    -3616.02130098298494
. Quadratic    0.549327    -3616.02131677156740    -3616.02131664037415

--------------------------------------------------------------------------------
  Iter                              Commutator    Free_energy(A=E-TS)     DeltaA
#    1                          0.000016433176   -3616.02131677156740  -1.00E-03

Step                       =       0.549327318991
Energy                     =   -3616.021291207739
Entropy (-TS)              =      -0.000025563429
Free energy (A=E-TS)       =   -3616.021316771567
Est. 0K Energy 0.5*(E+A)   =   -3616.021303989653
Residual Non-orthogonality =       0.000000000000
Residual N_electrons       =      -0.000000000400

Spin          Integrated_Ne            Fermi_level     Delta_Fermi_level
   1      2560.000000002497         0.160141422273             -2.78E-03

                           Spin 1          
     Orb      H-eigenvalues     Occupancies
       1 |    -0.5656915905    1.0000000000 | 
                          ------
    1276 |     0.1248589014    0.9999854999 | 
    1277 |     0.1253406181    0.9999831177 | 
    1278 |     0.1253457079    0.9999830905 | 
    1279 |     0.1255354839    0.9999820462 | 
    1280 |     0.1260224985    0.9999790616 | 
                 - Gap at zero temperature -
    1281 |     0.1964284054    0.0000105590 | 
    1282 |     0.1964536584    0.0000104751 | 
    1283 |     0.1964599304    0.0000104544 | 
    1284 |     0.1965658722    0.0000101104 | 
    1285 |     0.1965763759    0.0000100770 | 
                          ------
    2560 |     1.0003500097    0.0000000000 | 

                       |  Abs_value |  Threshold | Converged
     Delta_Free_energy |   1.00E-03 |   1.00E-06 |        No
     Delta_Energy      |   1.00E-03 |   1.00E-04 |        No
     Delta_Entropy     |   1.02E-06 |   1.00E-04 |       Yes
     Commutator        |   1.64E-05 |   1.00E-05 |        No
     Delta_Fermi_level |   2.78E-03 |   1.00E-03 |        No

  Line search of the free energy minimum:
  Step_type        Step             Free_energy   Predicted_free_energy
.   Initial    0.000000    -3616.02131677156740
.    Trial1    0.549327    -3616.02124578843404
.    Trial2    0.209824    -3616.02157021191533
. Quadratic    0.258259    -3616.02157950344053    -3616.02157945083354

--------------------------------------------------------------------------------
  Iter                              Commutator    Free_energy(A=E-TS)     DeltaA
#    2                          0.000008821559   -3616.02157950344053  -2.63E-04

Step                       =       0.258258601559
Energy                     =   -3616.021553723239
Entropy (-TS)              =      -0.000025780173
Free energy (A=E-TS)       =   -3616.021579503441
Est. 0K Energy 0.5*(E+A)   =   -3616.021566613340
Residual Non-orthogonality =       0.000000000000
Residual N_electrons       =      -0.000000000029

Spin          Integrated_Ne            Fermi_level     Delta_Fermi_level
   1      2560.000000000181         0.159546940479             -5.94E-04

                           Spin 1          
     Orb      H-eigenvalues     Occupancies
       1 |    -0.5663596433    1.0000000000 | 
                          ------
    1276 |     0.1242647379    0.9999854984 | 
    1277 |     0.1247893147    0.9999828859 | 
    1278 |     0.1247950291    0.9999828550 | 
    1279 |     0.1249380637    0.9999820629 | 
    1280 |     0.1254686189    0.9999787914 | 
                 - Gap at zero temperature -
    1281 |     0.1958223786    0.0000105975 | 
    1282 |     0.1958491282    0.0000105084 | 
    1283 |     0.1958545854    0.0000104903 | 
    1284 |     0.1959636689    0.0000101351 | 
    1285 |     0.1959745718    0.0000101003 | 
                          ------
    2560 |     0.9995449912    0.0000000000 | 

                       |  Abs_value |  Threshold | Converged
     Delta_Free_energy |   2.63E-04 |   1.00E-06 |        No
     Delta_Energy      |   2.63E-04 |   1.00E-04 |        No
     Delta_Entropy     |   2.17E-07 |   1.00E-04 |       Yes
     Commutator        |   8.82E-06 |   1.00E-05 |       Yes
     Delta_Fermi_level |   5.94E-04 |   1.00E-03 |       Yes

  Line search of the free energy minimum:
  Step_type        Step             Free_energy   Predicted_free_energy
.   Initial    0.000000    -3616.02157950344053
.    Trial1    0.258259    -3616.02165399805835
.    Trial2    0.541579    -3616.02165795786914
. Quadratic    0.413707    -3616.02166625518021    -3616.02166624460597

--------------------------------------------------------------------------------
  Iter                              Commutator    Free_energy(A=E-TS)     DeltaA
#    3                          0.000006103873   -3616.02166625518021  -8.68E-05

Step                       =       0.413707473337
Energy                     =   -3616.021640218741
Entropy (-TS)              =      -0.000026036122
Free energy (A=E-TS)       =   -3616.021666255180
Est. 0K Energy 0.5*(E+A)   =   -3616.021653236960
Residual Non-orthogonality =       0.000000000000
Residual N_electrons       =      -0.000000000318

Spin          Integrated_Ne            Fermi_level     Delta_Fermi_level
   1      2560.000000001999         0.158836237165             -7.11E-04

                           Spin 1          
     Orb      H-eigenvalues     Occupancies
       1 |    -0.5671475003    1.0000000000 | 
                          ------
    1276 |     0.1235721434    0.9999854153 | 
    1277 |     0.1241143429    0.9999826917 | 
    1278 |     0.1241206489    0.9999826572 | 
    1279 |     0.1242420224    0.9999819796 | 
    1280 |     0.1247908213    0.9999785699 | 
                 - Gap at zero temperature -
    1281 |     0.1950849387    0.0000106874 | 
    1282 |     0.1951131037    0.0000105928 | 
    1283 |     0.1951179141    0.0000105767 | 
    1284 |     0.1952293305    0.0000102110 | 
    1285 |     0.1952406177    0.0000101747 | 
                          ------
    2560 |     0.9986018961    0.0000000000 | 

                       |  Abs_value |  Threshold | Converged
     Delta_Free_energy |   8.68E-05 |   1.00E-06 |        No
     Delta_Energy      |   8.65E-05 |   1.00E-04 |       Yes
     Delta_Entropy     |   2.56E-07 |   1.00E-04 |       Yes
     Commutator        |   6.10E-06 |   1.00E-05 |       Yes
     Delta_Fermi_level |   7.11E-04 |   1.00E-03 |       Yes

  Line search of the free energy minimum:
  Step_type        Step             Free_energy   Predicted_free_energy
.   Initial    0.000000    -3616.02166625518021
.    Trial1    0.413707    -3616.02168964373277
.    Trial2    0.637651    -3616.02162808086041
. Quadratic    0.261237    -3616.02170171357011    -3616.02170172721026

--------------------------------------------------------------------------------
  Iter                              Commutator    Free_energy(A=E-TS)     DeltaA
#    4                          0.000003717304   -3616.02170171357011  -3.55E-05

Step                       =       0.261236582388
Energy                     =   -3616.021675582592
Entropy (-TS)              =      -0.000026131355
Free energy (A=E-TS)       =   -3616.021701713570
[...]
 C   160 -- C   385       -0.10      5.37000
 C   159 -- C   384       -0.10      5.37000
 C   158 -- C   383       -0.10      5.37000
 C   157 -- C   382       -0.10      5.37000
 C   156 -- C   381       -0.10      5.37000
 C   155 -- C   355       -0.10      5.37000
 C   154 -- C   354       -0.10      5.37000
 C   153 -- C   353       -0.10      5.37000
 C   152 -- C   352       -0.10      5.37000
 C   151 -- C   351       -0.10      5.37000
 C   140 -- C   335       -0.10      5.37000
 C   139 -- C   334       -0.10      5.37000
 C   138 -- C   333       -0.10      5.37000
 C   137 -- C   332       -0.10      5.37000
 C   136 -- C   331       -0.10      5.37000
 C   115 -- C   325       -0.10      5.37000
 C   114 -- C   324       -0.10      5.37000
 C   113 -- C   323       -0.10      5.37000
 C   112 -- C   322       -0.10      5.37000
 C   111 -- C   321       -0.10      5.37000
 C   219 -- C   569       -0.10      5.37202
 C   218 -- C   568       -0.10      5.37202
 C   217 -- C   567       -0.10      5.37202
 C   216 -- C   566       -0.10      5.37202
 C   250 -- C   540       -0.10      5.37202
 C   249 -- C   539       -0.10      5.37202
 C   248 -- C   538       -0.10      5.37202
 C   247 -- C   537       -0.10      5.37202
 C   246 -- C   536       -0.10      5.37202
 C   220 -- C   570       -0.10      5.37202
 C   285 -- C   580       -0.10      5.37202
 C   284 -- C   579       -0.10      5.37202
 C   283 -- C   578       -0.10      5.37202
 C   282 -- C   577       -0.10      5.37202
 C   281 -- C   576       -0.10      5.37202
 C   260 -- C   605       -0.10      5.37202
 C   259 -- C   604       -0.10      5.37202
 C   258 -- C   603       -0.10      5.37202
 C   257 -- C   602       -0.10      5.37202
 C   256 -- C   601       -0.10      5.37202
 C   220 -- C   515       -0.10      5.37202
 C   219 -- C   514       -0.10      5.37202
 C   218 -- C   513       -0.10      5.37202
 C   217 -- C   512       -0.10      5.37202
 C   216 -- C   511       -0.10      5.37202
 C   195 -- C   540       -0.10      5.37202
 C   195 -- C   500       -0.10      5.37202
 C   194 -- C   539       -0.10      5.37202
 C   194 -- C   499       -0.10      5.37202
 C   193 -- C   538       -0.10      5.37202
 C   193 -- C   498       -0.10      5.37202
 C   192 -- C   537       -0.10      5.37202
 C   192 -- C   497       -0.10      5.37202
 C   191 -- C   536       -0.10      5.37202
 C   191 -- C   496       -0.10      5.37202
 C   180 -- C   515       -0.10      5.37202
 C   179 -- C   514       -0.10      5.37202
 C   178 -- C   513       -0.10      5.37202
 C   177 -- C   512       -0.10      5.37202
 C   176 -- C   511       -0.10      5.37202
 C    11 -- C   331       -0.10      5.37202
 C   205 -- C   550       -0.10      5.37202
 C   204 -- C   549       -0.10      5.37202
 C   203 -- C   548       -0.10      5.37202
 C   202 -- C   547       -0.10      5.37202
 C   201 -- C   546       -0.10      5.37202
 C    95 -- C   425       -0.10      5.37202
 C    95 -- C   365       -0.10      5.37202
 C    94 -- C   424       -0.10      5.37202
 C    94 -- C   364       -0.10      5.37202
 C    93 -- C   423       -0.10      5.37202
 C    93 -- C   363       -0.10      5.37202
 C    92 -- C   422       -0.10      5.37202
 C    92 -- C   362       -0.10      5.37202
 C    91 -- C   421       -0.10      5.37202
 C    91 -- C   361       -0.10      5.37202
 C    40 -- C   365       -0.10      5.37202
 C    39 -- C   364       -0.10      5.37202
 C    38 -- C   363       -0.10      5.37202
 C    37 -- C   362       -0.10      5.37202
 C    36 -- C   361       -0.10      5.37202
 C    15 -- C   335       -0.10      5.37202
 C    65 -- C   395       -0.10      5.37202
 C    65 -- C   345       -0.10      5.37202
 C    64 -- C   394       -0.10      5.37202
 C    64 -- C   344       -0.10      5.37202
 C    63 -- C   393       -0.10      5.37202
 C    30 -- C   355       -0.10      5.37202
 C    63 -- C   343       -0.10      5.37202
 C    62 -- C   392       -0.10      5.37202
 C    30 -- C   325       -0.10      5.37202
 C    14 -- C   334       -0.10      5.37202
 C    62 -- C   342       -0.10      5.37202
 C    61 -- C   391       -0.10      5.37202
 C    29 -- C   354       -0.10      5.37202
 C    61 -- C   341       -0.10      5.37202
 C    29 -- C   324       -0.10      5.37202
 C   260 -- C   550       -0.10      5.37202
 C   259 -- C   549       -0.10      5.37202
 C    28 -- C   353       -0.10      5.37202
 C   258 -- C   548       -0.10      5.37202
 C   257 -- C   547       -0.10      5.37202
 C   256 -- C   546       -0.10      5.37202
 C    28 -- C   323       -0.10      5.37202
 C    27 -- C   352       -0.10      5.37202
 C    13 -- C   333       -0.10      5.37202
 C    27 -- C   322       -0.10      5.37202
 C   120 -- C   395       -0.10      5.37202
 C    26 -- C   351       -0.10      5.37202
 C   119 -- C   394       -0.10      5.37202
 C   118 -- C   393       -0.10      5.37202
 C    55 -- C   335       -0.10      5.37202
 C   117 -- C   392       -0.10      5.37202
 C    26 -- C   321       -0.10      5.37202
 C   116 -- C   391       -0.10      5.37202
 C    54 -- C   334       -0.10      5.37202
 C    12 -- C   332       -0.10      5.37202
 C    53 -- C   333       -0.10      5.37202
 C   230 -- C   580       -0.10      5.37202
 C   230 -- C   525       -0.10      5.37202
 C   229 -- C   579       -0.10      5.37202
 C   229 -- C   524       -0.10      5.37202
 C   228 -- C   578       -0.10      5.37202
 C    52 -- C   332       -0.10      5.37202
 C   228 -- C   523       -0.10      5.37202
 C   227 -- C   577       -0.10      5.37202
 C   227 -- C   522       -0.10      5.37202
 C   226 -- C   576       -0.10      5.37202
 C   226 -- C   521       -0.10      5.37202
 C    51 -- C   331       -0.10      5.37202
 C    23 -- C   478       -0.10      5.37202
 C    49 -- C   469       -0.10      5.37202
 C    48 -- C   468       -0.10      5.37202
 C    47 -- C   467       -0.10      5.37202
 C    22 -- C   477       -0.10      5.37202
 C    46 -- C   466       -0.10      5.37202
 C    21 -- C   476       -0.10      5.37202
 C    85 -- C   355       -0.10      5.37202
 C    84 -- C   354       -0.10      5.37202
 C    83 -- C   353       -0.10      5.37202
 C    82 -- C   352       -0.10      5.37202
 C    81 -- C   351       -0.10      5.37202
 C    55 -- C   385       -0.10      5.37202
 C    54 -- C   384       -0.10      5.37202
 C    25 -- C   480       -0.10      5.37202
 C    53 -- C   383       -0.10      5.37202
 C    52 -- C   382       -0.10      5.37202
 C    51 -- C   381       -0.10      5.37202
 C    24 -- C   479       -0.10      5.37202
 C    50 -- C   470       -0.10      5.37202
 C    24 -- C   449       -0.10      5.37202
 C     6 -- C   416       -0.10      5.37202
 C    23 -- C   448       -0.10      5.37202
 C    22 -- C   447       -0.10      5.37202
 C    10 -- C   470       -0.10      5.37202
 C     5 -- C   450       -0.10      5.37202
 C    21 -- C   446       -0.10      5.37202
 C    10 -- C   420       -0.10      5.37202
 C     9 -- C   469       -0.10      5.37202
 C     9 -- C   419       -0.10      5.37202
 C     8 -- C   468       -0.10      5.37202
 C     4 -- C   449       -0.10      5.37202
 C   150 -- C   440       -0.10      5.37202
 C   149 -- C   439       -0.10      5.37202
 C   148 -- C   438       -0.10      5.37202
 C   147 -- C   437       -0.10      5.37202
 C     8 -- C   418       -0.10      5.37202
 C   146 -- C   436       -0.10      5.37202
 C     2 -- C   447       -0.10      5.37202
 C   135 -- C   460       -0.10      5.37202
 C     7 -- C   467       -0.10      5.37202
 C   134 -- C   459       -0.10      5.37202
 C   133 -- C   458       -0.10      5.37202
 C   132 -- C   457       -0.10      5.37202
 C   131 -- C   456       -0.10      5.37202
 C     7 -- C   417       -0.10      5.37202
 C     1 -- C   446       -0.10      5.37202
 C     6 -- C   466       -0.10      5.37202
 C    25 -- C   450       -0.10      5.37202
 C     3 -- C   448       -0.10      5.37202
 C   106 -- C   436       -0.10      5.37202
 C   106 -- C   376       -0.10      5.37202
 C    80 -- C   410       -0.10      5.37202
 C    79 -- C   409       -0.10      5.37202
 C    78 -- C   408       -0.10      5.37202
 C    77 -- C   407       -0.10      5.37202
 C    76 -- C   406       -0.10      5.37202
 C   135 -- C   410       -0.10      5.37202
 C   134 -- C   409       -0.10      5.37202
 C   133 -- C   408       -0.10      5.37202
 C   132 -- C   407       -0.10      5.37202
 C   131 -- C   406       -0.10      5.37202
 C   110 -- C   440       -0.10      5.37202
 C   110 -- C   380       -0.10      5.37202
 C   109 -- C   439       -0.10      5.37202
 C   109 -- C   379       -0.10      5.37202
 C   108 -- C   438       -0.10      5.37202
 C   108 -- C   378       -0.10      5.37202
 C   107 -- C   437       -0.10      5.37202
 C   107 -- C   377       -0.10      5.37202
 C   215 -- C   635       -0.10      5.38000
 C   214 -- C   634       -0.10      5.38000
 C   213 -- C   633       -0.10      5.38000
 C   212 -- C   632       -0.10      5.38000
 C   211 -- C   631       -0.10      5.38000
 C   190 -- C   620       -0.10      5.38000
 C   189 -- C   619       -0.10      5.38000
 C   188 -- C   618       -0.10      5.38000
 C   187 -- C   617       -0.10      5.38000
 C   186 -- C   616       -0.10      5.38000
 C   175 -- C   595       -0.10      5.38000
 C   174 -- C   594       -0.10      5.38000
 C   173 -- C   593       -0.10      5.38000
 C   172 -- C   592       -0.10      5.38000
 C   171 -- C   591       -0.10      5.38000
 C   245 -- C   640       -0.10      5.38000
 C   244 -- C   639       -0.10      5.38000
 C   243 -- C   638       -0.10      5.38000
 C   242 -- C   637       -0.10      5.38000
 C   241 -- C   636       -0.10      5.38000
==================================================


=================== Orbital energy and occupancy information ===================

      Total number of orbitals:    2560
        Occupancy sum (kernel):    1279.999999999
   Occupancy sum (eigenvalues):    1279.999999999
                 HOMO-LUMO gap:       0.066964883 Eh
                 Mid-gap level:       0.215086621 Eh

                        Orbital | Energy (Eh) | Occupancy
                            1    -0.503625297   1.0000000
                        .......   ...........   .........
                         1271     0.177601676   0.9999888
                         1272     0.177611744   0.9999888
                         1273     0.178075974   0.9999870
                         1274     0.178086029   0.9999870
                         1275     0.180254749   0.9999742
                         1276     0.180260036   0.9999742
                         1277     0.180727925   0.9999701
                         1278     0.180733156   0.9999700
                         1279     0.181133015   0.9999660
                         1280     0.181604180   0.9999606
                        ....... -- gap at 0K -- .........
                         1281     0.248569063   0.0000165
                         1282     0.248577509   0.0000164
                         1283     0.248810858   0.0000153
                         1284     0.248819393   0.0000152
                         1285     0.248851422   0.0000151
                         1286     0.248855258   0.0000151
                         1287     0.249058002   0.0000142
                         1288     0.249102775   0.0000140
                         1289     0.249106641   0.0000140
                         1290     0.249202570   0.0000135
                        .......   ...........   .........
                         2560     1.116743621   0.0000000

================================================================================

===================== Writing canonical molecular orbitals =====================
| Orbital  Energy (eV)  Norm     |
| HOMO      4.94170118  1.000000 | Writing "3.756468_GO_manual_4x64graphite_HOMO.cube" ... done
Writing "3.756468_GO_manual_4x64graphite_HOMO.dx" ... done
| LUMO      6.76390838  1.000000 | Writing "3.756468_GO_manual_4x64graphite_LUMO.cube" ... done
Writing "3.756468_GO_manual_4x64graphite_LUMO.dx" ... done
================================================================================
 
===================== Density of States (DOS) calculation ======================
Writing "3.756468_GO_manual_4x64graphite_DOS.txt" ...  done
================================================================================
 
Writing bands to file "3.756468_GO_manual_4x64graphite.val_bands" ... done
 
================ Projected Density of States (pDOS) calculation ================
 
Constructing AM resolved functions  ...... done
Writing NGWF plot files in formats: CUBE DX ...  done
 
Performing overlap integrals ...  done
 
Computing pDOS weights ...  done
 
All bands spilling parameter =   3.09 %
Occupancy-weighted spilling parameter =   0.93 %
 
 => Outputting data for OptaDOS <=
 
Writing pDOS weights to file "3.756468_GO_manual_4x64graphite.val_pdos_bin" ... done
 
Writing band gradients to file "3.756468_GO_manual_4x64graphite.val_dome_bin" ... done
 
Writing Castep output cell file to "3.756468_GO_manual_4x64graphite-out.cell" ... done
 
 => Computing Gaussian smeared pDOS <= 
Writing "3.756468_GO_manual_4x64graphite_PDOS.txt" ...  done
 
 => Computing Occupancy-weighted Gaussian smeared pDOS <= 
Writing "3.756468_GO_manual_4x64graphite_occ_PDOS.txt" ...  done
  => Band centres: 
 S band centre of group 1:  -13.687329 eV
 P band centre of group 1:   -6.612277 eV
  Band centres done. <=
  => Integrated number of electrons in each AM band: 
 S num electrons of group 1:  571.424362
 P num electrons of group 1: 1964.832892
  Integrated number of electrons done. <=
================================================================================

------------------------------ TIMING INFORMATION ------------------------------
AVERAGE TIME:    3007.341s on     40 node(s)                                    
TOTAL TIME:      3007.341s on     40 node(s)                                    
================= AVERAGE TIMINGS FROM ALL NODES (CUMULATIVE) ==================
|| TAG                                    #calls    cpu time   %total  Gflops ||
|| work_imbalance                       :     1        0.00s   0.000%  ------ ||
|| paw_tcore_hartree_on_grid            :     1        0.00s   0.000%  ------ ||
|| paw_tcore_density                    :     1        0.01s   0.000%  ------ ||
|| paw_sphere_density_on_grid           :     1        0.01s   0.000%  ------ ||
|| sparse_set_to_garbage                :   135        0.02s   0.001%  ------ ||
|| paw_dij_hartree                      :   273        0.03s   0.001%  ------ ||
|| pseudo_make_structure_factor         :     1        0.06s   0.002%  ------ ||
|| basis_extract_function_from_box      :  1536        0.06s   0.002%  ------ ||
|| paw_species_calc_proj_prec_mat       :     1        0.12s   0.004%  ------ ||
|| paw_dataset_init                     :     1        0.15s   0.005%  ------ ||
|| density_init_guess_real              :     1        0.17s   0.006%  ------ ||
|| ngwfs_initialise_from_radial         :     2        0.67s   0.022%  ------ ||
|| sparse_init                          :     1        0.92s   0.031%  ------ ||
|| dense_normal_eigensolve              :     1        1.01s   0.033%  ------ ||
|| restart_kernel_write                 :    13        1.06s   0.035%  ------ ||
|| hartree_on_grid                      :   206        1.10s   0.037%  ------ ||
|| projectors_init_fftbox_recip         :   121        2.32s   0.077%  ------ ||
|| ewald_calculate_energy               :     1        3.26s   0.109%  ------ ||
|| fourier_apply_box_pair               :  2272        3.75s   0.125% 562.264 ||
|| basis_copy_function_to_box           : 19584        4.24s   0.141%  ------ ||
|| augmentation_screen_dij              :   211        4.70s   0.156%  ------ ||
|| sparse_embed_hotelling_invert_embed  :    23        6.41s   0.213%  ------ ||
|| sw_init                              :     1        6.73s   0.224%  ------ ||
|| ngwf_gradient_coeffs                 :    12        8.60s   0.286%  ------ ||
|| sparse_trace                         :  2470       11.31s   0.376%  ------ ||
|| fourier_apply_cell_backward          :  6357       12.78s   0.425%  65.928 ||
|| fourier_apply_cell_forward           :  5946       13.53s   0.450%  58.218 ||
|| cell_grid_extract_box_real           :  8252       15.28s   0.508%  ------ ||
|| cell_grid_deposit_box_real           : 26544       16.98s   0.564%  ------ ||
|| paw_dij_xc                           :   273       21.76s   0.724%  ------ ||
|| aug_nonlocal_mat                     :   261       30.10s   1.001%  ------ ||
|| density_fftbox_deposit_to_cell       : 13184       34.45s   1.145%  ------ ||
|| augmentation_density_on_grid         :   206       36.61s   1.217%  ------ ||
|| function_ops_brappd_ketppd           :    48       44.72s   1.487%  ------ ||
|| hamiltonian_energy_components        :     3       47.03s   1.564%  ------ ||
|| projectors_func_ovlp_box             :    24       52.53s   1.747%  ------ ||
|| eigenstates_pdos                     :     1       54.57s   1.815%  ------ ||
|| eigenstates_calculate                :     1       58.91s   1.959%  ------ ||
|| xc_energy_potential                  :   205       62.15s   2.067%  ------ ||
|| nlxc_vdw_energy                      :   410       62.15s   2.067%  ------ ||
|| integrals_kinetic                    :    23       74.00s   2.461%  ------ ||
|| dense_eigensolve                     :   179       92.05s   3.061%  ------ ||
|| potential_apply_to_ngwf_batch        :   256      100.43s   3.340%  ------ ||
|| sparse_product                       :  2516      100.75s   3.350%  ------ ||
|| properties_calculate                 :     1      107.03s   3.559%  ------ ||
|| restart_ngwfs_tightbox_output        :    11      118.32s   3.934%  ------ ||
|| basis_dot_function_with_box          : 6.023M     162.05s   5.388%  ------ ||
|| fourier_apply_box                    : 61856      191.41s   6.365% 979.649 ||
|| edft_diag_ngwf_ham                   :   178      201.72s   6.708%  ------ ||
|| integrals_locpot_mat_els_batch       :   256      212.15s   7.054%  ------ ||
|| projectors_gradient_batch            :    48      215.85s   7.177%  ------ ||
|| density_fftbox_interpolate_multiply  : 13184      255.81s   8.506%  ------ ||
|| projectors_grad_precond_batch        :    48      297.19s   9.882%  ------ ||
|| integrals_locpot_dbl_grid            :    64      313.67s  10.430%  ------ ||
|| density_batch_interp_deposit         :   824      322.30s  10.717%  ------ ||
|| edft_apply_smearing_operator         :   178      389.91s  12.965%  ------ ||
|| basis_add_function_to_box            : 17.04M     442.34s  14.709%  ------ ||
|| ngwf_gradient_build_batch            :    48      549.33s  18.266%  ------ ||
|| density_batch_row_sums               :   824      612.01s  20.351%  ------ ||
|| ngwf_gradient_batch                  :    48      725.21s  24.115%  ------ ||
|| ngwf_gradient_lnv                    :    12      749.03s  24.907%  ------ ||
|| density_on_dbl_grid                  :   206      945.21s  31.430%  ------ ||
|| hamiltonian_lhxc_calculate           :   201     1025.99s  34.116%  ------ ||
|| edft_calculate                       :    12     1712.10s  56.931%  ------ ||
|| ngwf_cg_optimise                     :     1     2880.45s  95.781%  ------ ||
|| total_time                           :     1     3007.34s 100.000%  ------ ||
================================================================================
Overhead of generating timer report: 
- 0 ms averaging over threads,
- 5 ms ensuring consistency across MPI ranks,
- 0 ms printing in order.

Job completed: 29-02-2020 05:06 (-0000)

