 +---------------------------------------------------------------+
 |                                                               |
 |        ####### #     # ####### ####### ####### ######         |
 |        #     # ##    # #          #    #       #     #        |
 |        #     # # #   # #          #    #       #     #        |
 |        #     # #  #  # #####      #    #####   ######         |
 |        #     # #   # # #          #    #       #              |
 |        #     # #    ## #          #    #       #              |
 |        ####### #     # #######    #    ####### #              |
 |                                                               |
 |        Linear-Scaling Ab Initio Total Energy Program          |
 |                                                               |
 |          Release for academic collaborators of ODG            |
 |                                             Version 5.3.2.12  |
 |                                                               |
 +---------------------------------------------------------------+
 |                                                               |
 |  Authors:                                                     |
 |  Jacek Dziedzic, Peter D. Haynes, Nicholas D. M. Hine,        |
 |  Arash. A. Mostofi, Mike C. Payne and Chris-Kriton Skylaris   |
 |                                                               |
 |  Contributors:                                                |
 |  J. Aarons, L. Andrinopoulos, P. W. Avraam, R. A. Bell,       |
 |  A. Bhandari, G. A. Bramley, R. J. Charlton, S. J. Clark,     |
 |  R. J. Clements, G. C. Constantinescu, F. Corsetti,           |
 |  N. Corsini, O. Dieguez, S. M. M. Dubois, K. K. B. Duff,      |
 |  J. M. Escartin, A. Greco, H. Helal, Q. O. Hill, L. P. Lee,   |
 |  J.-H. Li, E. B. Linscott, G. Moynihan, D. D. O`Regan,        |
 |  O. K. Okan, M. J. S. Phipps, C. J. Pickard,                  |
 |  J. C. A. Prentice, M. I. J. Probert, L. E. Ratcliff,         |
 |  M. Robinson, A. Ruiz Serrano, J. S. Spencer, E. W. Tait,     |
 |  G. Teobaldi, D. Turban, V. Vitale, K. A. Wilkinson,          |
 |  C. Weber, J. C. Womack, N. Yeung and T. J. Zuehlsdorff       |
 |                                                               |
 |                                   Copyright (c) 2004-2020     |
 |                                                               |
 |  Please cite:                                                 |
 |  "Introducing ONETEP: Linear-scaling density functional       |
 |   simulations on parallel computers".                         |
 |   C.-K. Skylaris, P. D. Haynes, A. A. Mostofi, M. C. Payne.   |
 |   J. Chem. Phys. 122 084119 (2005).                           |
 |                                                               |
 |          in all publications arising from your use of ONETEP. |
 |                                                               |
 +---------------------------------------------------------------+
 |                                                               |
 |   ONETEP is based on developments described in the following  |
 |   publications:                                               |
 |                                                               |
 |  "Nonorthogonal generalized Wannier function pseudopotential  |
 |   plane-wave method".                                         |
 |   C.-K. Skylaris, A. A. Mostofi, P. D. Haynes, O. Dieguez,    |
 |   M. C. Payne.                                                |
 |   Phys. Rev. B 66 035119 (2002).                              |
 |                                                               |
 |  "Preconditioned iterative minimization for linear-scaling    |
 |   electronic structure calculations".                         |
 |   A. A. Mostofi, P. D. Haynes, C.-K. Skylaris, M. C. Payne.   |
 |   J. Chem. Phys. 119(17), pp.8842-8848 (2003).                |
 |                                                               |
 |  "Total-energy calculations on a real space grid with         |
 |   localized functions and a plane-wave basis".                |
 |   A. A. Mostofi, C.-K. Skylaris, P. D. Haynes, M. C. Payne.   |
 |   Comput. Phys. Commun. 147, pp.788-802 (2002).               |
 |                                                               |
 |  "Accurate kinetic energy evaluation in electronic structure  |
 |   calculations with localized functions on real space grids"  |
 |   C.-K. Skylaris, A. A. Mostofi, P. D. Haynes, C. J. Pickard, |
 |   M. C. Payne.                                                |
 |   Comput. Phys. Commun. 140, pp.315-322 (2001).               |
 |                                                               |
 |  "Accurate ionic forces and geometry optimization in linear-  |
 |   scaling density-functional theory with local orbitals"      |
 |   N. D. M. Hine, M. Robinson, P. D. Haynes, C.-K. Skylaris,   |
 |   M. C. Payne, and A. A. Mostofi.                             |
 |   Phys. Rev. B 83 195102 (2011).                              |
 |                                                               |
 +---------------------------------------------------------------+

Job started: 29-02-2020 07:16 (-0000)
 
Reading parameters from file "3.890624_GO_manual_4x64graphite.dat" ...

WARNING: "cutoff_energy" not specified, but "psinc_spacing" specified.
         Using the latter to set the KE cutoff energy to  732.32021eV,
         thus *overriding* the default.

... done

If your calculation crashes here, before "Checking processes and threads..."
is displayed, then your stack size is insufficient.
If so, use "ulimit -s unlimited" at runtime.
You can disable this check with "check_stack_size F".

Checking processes and threads...
   Determining the default number of threads...
      No default threads set at compilation time: defaulting to 1.
      OpenMP library call suggests 4 threads.
      Hybrid MPI-OpenMP compilation detected.
      Number of MPI processes > 1.
      OMP_NUM_THREADS environment variable present and
      its value matches the one obtained from the OpenMP library call.
      Using this value as default.
      Default threads: 4
      Default applies to threads_max and threads_num_fftboxes.
      Settings in the input file override this default.
   ... done

   Running with 40 MPI processes.
   There are 10 MPI processes running on the same node as the root process.
   Each MPI process is using: 
               1 threads for simulation cell FFTs.
               1 threads for parallel FFT box operations.
               4 threads for loops over batched FFT box operations.
               4 threads in other parallel regions.
... done

Basic input checks...
Resetting ngwf_cg_rotate to TRUE for EDFT calculations
... done

Reading geometry and species blocks from file "3.890624_GO_manual_4x64graphite.dat" ...
    
  PSINC grid spacing along a1 set to   0.511215680000a0 from input file.
  PSINC grid spacing along a2 set to   0.531284090000a0 from input file.
  PSINC grid spacing along a3 set to   0.507050270000a0 from input file.
  Number of PPD points along a3 set to 1.  This is 
  the default value, it may have been provided also in the input file.
... done
 Writing xyz coordinates to file "3.890624_GO_manual_4x64graphite.xyz" ... done


--------------------------------------------------------------------------------
---------------------------------- INPUT FILE ----------------------------------
--------------------------------------------------------------------------------

task : singlepoint                                                              
do_properties : true                                                            
dx_format T                                                                     
edft T                                                                          
output_detail VERBOSE                                                           
write_xyz T                                                                     
xc_functional AVV10S                                                            
PSINC_SPACING 0.51121568 0.53128409 0.50705027                                  
paw T                                                                           
pdos_max_l = 2                                                                  
dos_smear  0.1 eV                                                               
popn_calculate T                                                                
PDOS_PSEUDOATOMIC T                                                             
PDOS_REDUCE_SWS F                                                               
PDOS_CONSTRUCT_BASIS F                                                          
PDOS_LOWDIN T                                                                   
PDOS_ORTH_ATOM_BLOCKS F                                                         
PDOS_LCAO_OPTIMIZE F                                                            
pdos_optados_output T                                                           
homo_plot 0                                                                     
lumo_plot 0                                                                     
homo_dens_plot -1                                                               
lumo_dens_plot -1                                                               
%BLOCK SPECIES                                                                  
C C 6 4 9.0                                                                     
%ENDBLOCK SPECIES                                                               
%BLOCK SPECIES_POT                                                              
C "~/pp/paw/c_pbe_abinit.paw"                                                   
%ENDBLOCK SPECIES_POT                                                           
%BLOCK SPECIES_ATOMIC_SET                                                       
C "SOLVE conf=2s2 2p2"                                                          
%ENDBLOCK SPECIES_ATOMIC_SET                                                    
%BLOCK LATTICE_CART                                                             
32.21  0.00  0.00                                                               
0.00 18.59  0.00                                                                
0.00  0.00 73.52                                                                
%ENDBLOCK LATTICE_CART                                                          
%BLOCK POSITIONS_ABS                                                            
C  0.00  0.00  3.68                                                             
C  0.00  0.00 18.38                                                             
C  0.00  0.00 33.09                                                             
C  0.00  0.00 47.79                                                             
C  0.00  0.00 62.49                                                             
C  0.00  4.65  3.68                                                             
C  0.00  4.65 18.38                                                             
C  0.00  4.65 33.09                                                             
C  0.00  4.65 47.79                                                             
C  0.00  4.65 62.49                                                             
C  4.03  2.32  3.68                                                             
C  4.03  2.32 18.38                                                             
C  4.03  2.32 33.09                                                             
C  4.03  2.32 47.79                                                             
C  4.03  2.32 62.49                                                             
C  8.05  0.00  3.68                                                             
C  8.05  0.00 18.38                                                             
C  8.05  0.00 33.09                                                             
C  8.05  0.00 47.79                                                             
C  8.05  0.00 62.49                                                             
C  0.00  9.30  3.68                                                             
C  0.00  9.30 18.38                                                             
C  0.00  9.30 33.09                                                             
C  0.00  9.30 47.79                                                             
C  0.00  9.30 62.49                                                             
C  4.03  6.97  3.68                                                             
C  4.03  6.97 18.38                                                             
C  4.03  6.97 33.09                                                             
C  4.03  6.97 47.79                                                             
C  4.03  6.97 62.49                                                             
C  8.05  4.65  3.68                                                             
C  8.05  4.65 18.38                                                             
C  8.05  4.65 33.09                                                             
C  8.05  4.65 47.79                                                             
C  8.05  4.65 62.49                                                             
C 12.08  2.32  3.68                                                             
C 12.08  2.32 18.38                                                             
C 12.08  2.32 33.09                                                             
C 12.08  2.32 47.79                                                             
C 12.08  2.32 62.49                                                             
C 16.10  0.00  3.68                                                             
C 16.10  0.00 18.38                                                             
C 16.10  0.00 33.09                                                             
C 16.10  0.00 47.79                                                             
C 16.10  0.00 62.49                                                             
C  0.00 13.95  3.68                                                             
C  0.00 13.95 18.38                                                             
C  0.00 13.95 33.09                                                             
C  0.00 13.95 47.79                                                             
C  0.00 13.95 62.49                                                             
C  4.03 11.62  3.68                                                             
C  4.03 11.62 18.38                                                             
C  4.03 11.62 33.09                                                             
C  4.03 11.62 47.79                                                             
C  4.03 11.62 62.49                                                             
C  8.05  9.30  3.68                                                             
C  8.05  9.30 18.38                                                             
C  8.05  9.30 33.09                                                             
C  8.05  9.30 47.79                                                             
C  8.05  9.30 62.49                                                             
C 12.08  6.97  3.68                                                             
C 12.08  6.97 18.38                                                             
C 12.08  6.97 33.09                                                             
C 12.08  6.97 47.79                                                             
C 12.08  6.97 62.49                                                             
C 16.10  4.65  3.68                                                             
C 16.10  4.65 18.38                                                             
C 16.10  4.65 33.09                                                             
C 16.10  4.65 47.79                                                             
C 16.10  4.65 62.49                                                             
C 20.13  2.32  3.68                                                             
C 20.13  2.32 18.38                                                             
C 20.13  2.32 33.09                                                             
C 20.13  2.32 47.79                                                             
C 20.13  2.32 62.49                                                             
C 24.16  0.00  3.68                                                             
C 24.16  0.00 18.38                                                             
C 24.16  0.00 33.09                                                             
C 24.16  0.00 47.79                                                             
C 24.16  0.00 62.49                                                             
C  4.03 16.27  3.68                                                             
C  4.03 16.27 18.38                                                             
C  4.03 16.27 33.09                                                             
C  4.03 16.27 47.79                                                             
C  4.03 16.27 62.49                                                             
C  8.05 13.95  3.68                                                             
C  8.05 13.95 18.38                                                             
C  8.05 13.95 33.09                                                             
C  8.05 13.95 47.79                                                             
C  8.05 13.95 62.49                                                             
C 12.08 11.62  3.68                                                             
C 12.08 11.62 18.38                                                             
C 12.08 11.62 33.09                                                             
C 12.08 11.62 47.79                                                             
C 12.08 11.62 62.49                                                             
C 16.10  9.30  3.68                                                             
C 16.10  9.30 18.38                                                             
C 16.10  9.30 33.09                                                             
C 16.10  9.30 47.79                                                             
C 16.10  9.30 62.49                                                             
C 20.13  6.97  3.68                                                             
C 20.13  6.97 18.38                                                             
C 20.13  6.97 33.09                                                             
C 20.13  6.97 47.79                                                             
C 20.13  6.97 62.49                                                             
C 24.16  4.65  3.68                                                             
C 24.16  4.65 18.38                                                             
C 24.16  4.65 33.09                                                             
C 24.16  4.65 47.79                                                             
C 24.16  4.65 62.49                                                             
C 28.18  2.32  3.68                                                             
C 28.18  2.32 18.38                                                             
C 28.18  2.32 33.09                                                             
C 28.18  2.32 47.79                                                             
C 28.18  2.32 62.49                                                             
C 12.08 16.27  3.68                                                             
C 12.08 16.27 18.38                                                             
C 12.08 16.27 33.09                                                             
C 12.08 16.27 47.79                                                             
C 12.08 16.27 62.49                                                             
C 16.10 13.95  3.68                                                             
C 16.10 13.95 18.38                                                             
C 16.10 13.95 33.09                                                             
C 16.10 13.95 47.79                                                             
C 16.10 13.95 62.49                                                             
C 20.13 11.62  3.68                                                             
C 20.13 11.62 18.38                                                             
C 20.13 11.62 33.09                                                             
C 20.13 11.62 47.79                                                             
C 20.13 11.62 62.49                                                             
C 24.16  9.30  3.68                                                             
C 24.16  9.30 18.38                                                             
C 24.16  9.30 33.09                                                             
C 24.16  9.30 47.79                                                             
C 24.16  9.30 62.49                                                             
C 28.18  6.97  3.68                                                             
C 28.18  6.97 18.38                                                             
C 28.18  6.97 33.09                                                             
C 28.18  6.97 47.79                                                             
C 28.18  6.97 62.49                                                             
C 20.13 16.27  3.68                                                             
C 20.13 16.27 18.38                                                             
C 20.13 16.27 33.09                                                             
C 20.13 16.27 47.79                                                             
C 20.13 16.27 62.49                                                             
C 24.16 13.95  3.68                                                             
C 24.16 13.95 18.38                                                             
C 24.16 13.95 33.09                                                             
C 24.16 13.95 47.79                                                             
C 24.16 13.95 62.49                                                             
C 28.18 11.62  3.68                                                             
C 28.18 11.62 18.38                                                             
C 28.18 11.62 33.09                                                             
C 28.18 11.62 47.79                                                             
C 28.18 11.62 62.49                                                             
C 28.18 16.27  3.68                                                             
C 28.18 16.27 18.38                                                             
C 28.18 16.27 33.09                                                             
C 28.18 16.27 47.79                                                             
C 28.18 16.27 62.49                                                             
C  0.00  0.00 11.03                                                             
C  0.00  0.00 25.73                                                             
C  0.00  0.00 40.44                                                             
C  0.00  0.00 55.14                                                             
C  0.00  0.00 69.85                                                             
C  0.00  4.65 11.03                                                             
C  0.00  4.65 25.73                                                             
C  0.00  4.65 40.44                                                             
C  0.00  4.65 55.14                                                             
C  0.00  4.65 69.85                                                             
C  4.03  2.32 11.03                                                             
C  4.03  2.32 25.73                                                             
C  4.03  2.32 40.44                                                             
C  4.03  2.32 55.14                                                             
C  4.03  2.32 69.85                                                             
C  8.05  0.00 11.03                                                             
C  8.05  0.00 25.73                                                             
C  8.05  0.00 40.44                                                             
C  8.05  0.00 55.14                                                             
C  8.05  0.00 69.85                                                             
C  0.00  9.30 11.03                                                             
C  0.00  9.30 25.73                                                             
C  0.00  9.30 40.44                                                             
C  0.00  9.30 55.14                                                             
C  0.00  9.30 69.85                                                             
C  4.03  6.97 11.03                                                             
C  4.03  6.97 25.73                                                             
C  4.03  6.97 40.44                                                             
C  4.03  6.97 55.14                                                             
C  4.03  6.97 69.85                                                             
C  8.05  4.65 11.03                                                             
C  8.05  4.65 25.73                                                             
C  8.05  4.65 40.44                                                             
C  8.05  4.65 55.14                                                             
C  8.05  4.65 69.85                                                             
C 12.08  2.32 11.03                                                             
C 12.08  2.32 25.73                                                             
C 12.08  2.32 40.44                                                             
C 12.08  2.32 55.14                                                             
C 12.08  2.32 69.85                                                             
C 16.10  0.00 11.03                                                             
C 16.10  0.00 25.73                                                             
C 16.10  0.00 40.44                                                             
C 16.10  0.00 55.14                                                             
C 16.10  0.00 69.85                                                             
C  0.00 13.95 11.03                                                             
C  0.00 13.95 25.73                                                             
C  0.00 13.95 40.44                                                             
C  0.00 13.95 55.14                                                             
C  0.00 13.95 69.85                                                             
C  4.03 11.62 11.03                                                             
C  4.03 11.62 25.73                                                             
C  4.03 11.62 40.44                                                             
C  4.03 11.62 55.14                                                             
C  4.03 11.62 69.85                                                             
C  8.05  9.30 11.03                                                             
C  8.05  9.30 25.73                                                             
C  8.05  9.30 40.44                                                             
C  8.05  9.30 55.14                                                             
C  8.05  9.30 69.85                                                             
C 12.08  6.97 11.03                                                             
C 12.08  6.97 25.73                                                             
C 12.08  6.97 40.44                                                             
C 12.08  6.97 55.14                                                             
C 12.08  6.97 69.85                                                             
C 16.10  4.65 11.03                                                             
C 16.10  4.65 25.73                                                             
C 16.10  4.65 40.44                                                             
C 16.10  4.65 55.14                                                             
C 16.10  4.65 69.85                                                             
C 20.13  2.32 11.03                                                             
C 20.13  2.32 25.73                                                             
C 20.13  2.32 40.44                                                             
C 20.13  2.32 55.14                                                             
C 20.13  2.32 69.85                                                             
C 24.16  0.00 11.03                                                             
C 24.16  0.00 25.73                                                             
C 24.16  0.00 40.44                                                             
C 24.16  0.00 55.14                                                             
C 24.16  0.00 69.85                                                             
C  4.03 16.27 11.03                                                             
C  4.03 16.27 25.73                                                             
C  4.03 16.27 40.44                                                             
C  4.03 16.27 55.14                                                             
C  4.03 16.27 69.85                                                             
C  8.05 13.95 11.03                                                             
C  8.05 13.95 25.73                                                             
C  8.05 13.95 40.44                                                             
C  8.05 13.95 55.14                                                             
C  8.05 13.95 69.85                                                             
C 12.08 11.62 11.03                                                             
C 12.08 11.62 25.73                                                             
C 12.08 11.62 40.44                                                             
C 12.08 11.62 55.14                                                             
C 12.08 11.62 69.85                                                             
C 16.10  9.30 11.03                                                             
C 16.10  9.30 25.73                                                             
C 16.10  9.30 40.44                                                             
C 16.10  9.30 55.14                                                             
C 16.10  9.30 69.85                                                             
C 20.13  6.97 11.03                                                             
C 20.13  6.97 25.73                                                             
C 20.13  6.97 40.44                                                             
C 20.13  6.97 55.14                                                             
C 20.13  6.97 69.85                                                             
C 24.16  4.65 11.03                                                             
C 24.16  4.65 25.73                                                             
C 24.16  4.65 40.44                                                             
C 24.16  4.65 55.14                                                             
C 24.16  4.65 69.85                                                             
C 28.18  2.32 11.03                                                             
C 28.18  2.32 25.73                                                             
C 28.18  2.32 40.44                                                             
C 28.18  2.32 55.14                                                             
C 28.18  2.32 69.85                                                             
C 12.08 16.27 11.03                                                             
C 12.08 16.27 25.73                                                             
C 12.08 16.27 40.44                                                             
C 12.08 16.27 55.14                                                             
C 12.08 16.27 69.85                                                             
C 16.10 13.95 11.03                                                             
C 16.10 13.95 25.73                                                             
C 16.10 13.95 40.44                                                             
C 16.10 13.95 55.14                                                             
C 16.10 13.95 69.85                                                             
C 20.13 11.62 11.03                                                             
C 20.13 11.62 25.73                                                             
C 20.13 11.62 40.44                                                             
C 20.13 11.62 55.14                                                             
C 20.13 11.62 69.85                                                             
C 24.16  9.30 11.03                                                             
C 24.16  9.30 25.73                                                             
C 24.16  9.30 40.44                                                             
C 24.16  9.30 55.14                                                             
C 24.16  9.30 69.85                                                             
C 28.18  6.97 11.03                                                             
C 28.18  6.97 25.73                                                             
C 28.18  6.97 40.44                                                             
C 28.18  6.97 55.14                                                             
C 28.18  6.97 69.85                                                             
C 20.13 16.27 11.03                                                             
C 20.13 16.27 25.73                                                             
C 20.13 16.27 40.44                                                             
C 20.13 16.27 55.14                                                             
C 20.13 16.27 69.85                                                             
C 24.16 13.95 11.03                                                             
C 24.16 13.95 25.73                                                             
C 24.16 13.95 40.44                                                             
C 24.16 13.95 55.14                                                             
C 24.16 13.95 69.85                                                             
C 28.18 11.62 11.03                                                             
C 28.18 11.62 25.73                                                             
C 28.18 11.62 40.44                                                             
C 28.18 11.62 55.14                                                             
C 28.18 11.62 69.85                                                             
C 28.18 16.27 11.03                                                             
C 28.18 16.27 25.73                                                             
C 28.18 16.27 40.44                                                             
C 28.18 16.27 55.14                                                             
C 28.18 16.27 69.85                                                             
C  1.34  2.32  3.68                                                             
C  1.34  2.32 18.38                                                             
C  1.34  2.32 33.09                                                             
C  1.34  2.32 47.79                                                             
C  1.34  2.32 62.49                                                             
C  5.37  0.00  3.68                                                             
C  5.37  0.00 18.38                                                             
C  5.37  0.00 33.09                                                             
C  5.37  0.00 47.79                                                             
C  5.37  0.00 62.49                                                             
C  1.34  6.97  3.68                                                             
C  1.34  6.97 18.38                                                             
C  1.34  6.97 33.09                                                             
C  1.34  6.97 47.79                                                             
C  1.34  6.97 62.49                                                             
C  5.37  4.65  3.68                                                             
C  5.37  4.65 18.38                                                             
C  5.37  4.65 33.09                                                             
C  5.37  4.65 47.79                                                             
C  5.37  4.65 62.49                                                             
C  9.39  2.32  3.68                                                             
C  9.39  2.32 18.38                                                             
C  9.39  2.32 33.09                                                             
C  9.39  2.32 47.79                                                             
C  9.39  2.32 62.49                                                             
C 13.42  0.00  3.68                                                             
C 13.42  0.00 18.38                                                             
C 13.42  0.00 33.09                                                             
C 13.42  0.00 47.79                                                             
C 13.42  0.00 62.49                                                             
C  1.34 11.62  3.68                                                             
C  1.34 11.62 18.38                                                             
C  1.34 11.62 33.09                                                             
C  1.34 11.62 47.79                                                             
C  1.34 11.62 62.49                                                             
C  5.37  9.30  3.68                                                             
C  5.37  9.30 18.38                                                             
C  5.37  9.30 33.09                                                             
C  5.37  9.30 47.79                                                             
C  5.37  9.30 62.49                                                             
C  9.39  6.97  3.68                                                             
C  9.39  6.97 18.38                                                             
C  9.39  6.97 33.09                                                             
C  9.39  6.97 47.79                                                             
C  9.39  6.97 62.49                                                             
C 13.42  4.65  3.68                                                             
C 13.42  4.65 18.38                                                             
C 13.42  4.65 33.09                                                             
C 13.42  4.65 47.79                                                             
C 13.42  4.65 62.49                                                             
C 17.45  2.32  3.68                                                             
C 17.45  2.32 18.38                                                             
C 17.45  2.32 33.09                                                             
C 17.45  2.32 47.79                                                             
C 17.45  2.32 62.49                                                             
C 21.47  0.00  3.68                                                             
C 21.47  0.00 18.38                                                             
C 21.47  0.00 33.09                                                             
C 21.47  0.00 47.79                                                             
C 21.47  0.00 62.49                                                             
C  1.34 16.27  3.68                                                             
C  1.34 16.27 18.38                                                             
C  1.34 16.27 33.09                                                             
C  1.34 16.27 47.79                                                             
C  1.34 16.27 62.49                                                             
C  5.37 13.95  3.68                                                             
C  5.37 13.95 18.38                                                             
C  5.37 13.95 33.09                                                             
C  5.37 13.95 47.79                                                             
C  5.37 13.95 62.49                                                             
C  9.39 11.62  3.68                                                             
C  9.39 11.62 18.38                                                             
C  9.39 11.62 33.09                                                             
C  9.39 11.62 47.79                                                             
C  9.39 11.62 62.49                                                             
C 13.42  9.30  3.68                                                             
C 13.42  9.30 18.38                                                             
C 13.42  9.30 33.09                                                             
C 13.42  9.30 47.79                                                             
C 13.42  9.30 62.49                                                             
C 17.45  6.97  3.68                                                             
C 17.45  6.97 18.38                                                             
C 17.45  6.97 33.09                                                             
C 17.45  6.97 47.79                                                             
C 17.45  6.97 62.49                                                             
C 21.47  4.65  3.68                                                             
C 21.47  4.65 18.38                                                             
C 21.47  4.65 33.09                                                             
C 21.47  4.65 47.79                                                             
C 21.47  4.65 62.49                                                             
C 25.50  2.32  3.68                                                             
C 25.50  2.32 18.38                                                             
C 25.50  2.32 33.09                                                             
C 25.50  2.32 47.79                                                             
C 25.50  2.32 62.49                                                             
C 29.52  0.00  3.68                                                             
C 29.52  0.00 18.38                                                             
C 29.52  0.00 33.09                                                             
C 29.52  0.00 47.79                                                             
C 29.52  0.00 62.49                                                             
C  9.39 16.27  3.68                                                             
C  9.39 16.27 18.38                                                             
C  9.39 16.27 33.09                                                             
C  9.39 16.27 47.79                                                             
C  9.39 16.27 62.49                                                             
C 13.42 13.95  3.68                                                             
C 13.42 13.95 18.38                                                             
C 13.42 13.95 33.09                                                             
C 13.42 13.95 47.79                                                             
C 13.42 13.95 62.49                                                             
C 17.45 11.62  3.68                                                             
C 17.45 11.62 18.38                                                             
C 17.45 11.62 33.09                                                             
C 17.45 11.62 47.79                                                             
C 17.45 11.62 62.49                                                             
C 21.47  9.30  3.68                                                             
C 21.47  9.30 18.38                                                             
C 21.47  9.30 33.09                                                             
C 21.47  9.30 47.79                                                             
C 21.47  9.30 62.49                                                             
C 25.50  6.97  3.68                                                             
C 25.50  6.97 18.38                                                             
C 25.50  6.97 33.09                                                             
C 25.50  6.97 47.79                                                             
C 25.50  6.97 62.49                                                             
C 29.52  4.65  3.68                                                             
C 29.52  4.65 18.38                                                             
C 29.52  4.65 33.09                                                             
C 29.52  4.65 47.79                                                             
C 29.52  4.65 62.49                                                             
C 17.45 16.27  3.68                                                             
C 17.45 16.27 18.38                                                             
C 17.45 16.27 33.09                                                             
C 17.45 16.27 47.79                                                             
C 17.45 16.27 62.49                                                             
C 21.47 13.95  3.68                                                             
C 21.47 13.95 18.38                                                             
C 21.47 13.95 33.09                                                             
C 21.47 13.95 47.79                                                             
C 21.47 13.95 62.49                                                             
C 25.50 11.62  3.68                                                             
C 25.50 11.62 18.38                                                             
C 25.50 11.62 33.09                                                             
C 25.50 11.62 47.79                                                             
C 25.50 11.62 62.49                                                             
C 29.52  9.30  3.68                                                             
C 29.52  9.30 18.38                                                             
C 29.52  9.30 33.09                                                             
C 29.52  9.30 47.79                                                             
C 29.52  9.30 62.49                                                             
C 25.50 16.27  3.68                                                             
C 25.50 16.27 18.38                                                             
C 25.50 16.27 33.09                                                             
C 25.50 16.27 47.79                                                             
C 25.50 16.27 62.49                                                             
C 29.52 13.95  3.68                                                             
C 29.52 13.95 18.38                                                             
C 29.52 13.95 33.09                                                             
C 29.52 13.95 47.79                                                             
C 29.52 13.95 62.49                                                             
C  2.68  0.00 11.03                                                             
C  2.68  0.00 25.73                                                             
C  2.68  0.00 40.44                                                             
C  2.68  0.00 55.14                                                             
C  2.68  0.00 69.85                                                             
C  2.68  4.65 11.03                                                             
C  2.68  4.65 25.73                                                             
C  2.68  4.65 40.44                                                             
C  2.68  4.65 55.14                                                             
C  2.68  4.65 69.85                                                             
C  6.71  2.32 11.03                                                             
C  6.71  2.32 25.73                                                             
C  6.71  2.32 40.44                                                             
C  6.71  2.32 55.14                                                             
C  6.71  2.32 69.85                                                             
C 10.74  0.00 11.03                                                             
C 10.74  0.00 25.73                                                             
C 10.74  0.00 40.44                                                             
C 10.74  0.00 55.14                                                             
C 10.74  0.00 69.85                                                             
C  2.68  9.30 11.03                                                             
C  2.68  9.30 25.73                                                             
C  2.68  9.30 40.44                                                             
C  2.68  9.30 55.14                                                             
C  2.68  9.30 69.85                                                             
C  6.71  6.97 11.03                                                             
C  6.71  6.97 25.73                                                             
C  6.71  6.97 40.44                                                             
C  6.71  6.97 55.14                                                             
C  6.71  6.97 69.85                                                             
C 10.74  4.65 11.03                                                             
C 10.74  4.65 25.73                                                             
C 10.74  4.65 40.44                                                             
C 10.74  4.65 55.14                                                             
C 10.74  4.65 69.85                                                             
C 14.76  2.32 11.03                                                             
C 14.76  2.32 25.73                                                             
C 14.76  2.32 40.44                                                             
C 14.76  2.32 55.14                                                             
C 14.76  2.32 69.85                                                             
C 18.79  0.00 11.03                                                             
C 18.79  0.00 25.73                                                             
C 18.79  0.00 40.44                                                             
C 18.79  0.00 55.14                                                             
C 18.79  0.00 69.85                                                             
C  2.68 13.95 11.03                                                             
C  2.68 13.95 25.73                                                             
C  2.68 13.95 40.44                                                             
C  2.68 13.95 55.14                                                             
C  2.68 13.95 69.85                                                             
C  6.71 11.62 11.03                                                             
C  6.71 11.62 25.73                                                             
C  6.71 11.62 40.44                                                             
C  6.71 11.62 55.14                                                             
C  6.71 11.62 69.85                                                             
C 10.74  9.30 11.03                                                             
C 10.74  9.30 25.73                                                             
C 10.74  9.30 40.44                                                             
C 10.74  9.30 55.14                                                             
C 10.74  9.30 69.85                                                             
C 14.76  6.97 11.03                                                             
C 14.76  6.97 25.73                                                             
C 14.76  6.97 40.44                                                             
C 14.76  6.97 55.14                                                             
C 14.76  6.97 69.85                                                             
C 18.79  4.65 11.03                                                             
C 18.79  4.65 25.73                                                             
C 18.79  4.65 40.44                                                             
C 18.79  4.65 55.14                                                             
C 18.79  4.65 69.85                                                             
C 22.81  2.32 11.03                                                             
C 22.81  2.32 25.73                                                             
C 22.81  2.32 40.44                                                             
C 22.81  2.32 55.14                                                             
C 22.81  2.32 69.85                                                             
C 26.84  0.00 11.03                                                             
C 26.84  0.00 25.73                                                             
C 26.84  0.00 40.44                                                             
C 26.84  0.00 55.14                                                             
C 26.84  0.00 69.85                                                             
C  6.71 16.27 11.03                                                             
C  6.71 16.27 25.73                                                             
C  6.71 16.27 40.44                                                             
C  6.71 16.27 55.14                                                             
C  6.71 16.27 69.85                                                             
C 10.74 13.95 11.03                                                             
C 10.74 13.95 25.73                                                             
C 10.74 13.95 40.44                                                             
C 10.74 13.95 55.14                                                             
C 10.74 13.95 69.85                                                             
C 14.76 11.62 11.03                                                             
C 14.76 11.62 25.73                                                             
C 14.76 11.62 40.44                                                             
C 14.76 11.62 55.14                                                             
C 14.76 11.62 69.85                                                             
C 18.79  9.30 11.03                                                             
C 18.79  9.30 25.73                                                             
C 18.79  9.30 40.44                                                             
C 18.79  9.30 55.14                                                             
C 18.79  9.30 69.85                                                             
C 22.81  6.97 11.03                                                             
C 22.81  6.97 25.73                                                             
C 22.81  6.97 40.44                                                             
C 22.81  6.97 55.14                                                             
C 22.81  6.97 69.85                                                             
C 26.84  4.65 11.03                                                             
C 26.84  4.65 25.73                                                             
C 26.84  4.65 40.44                                                             
C 26.84  4.65 55.14                                                             
C 26.84  4.65 69.85                                                             
C 30.86  2.32 11.03                                                             
C 30.86  2.32 25.73                                                             
C 30.86  2.32 40.44                                                             
C 30.86  2.32 55.14                                                             
C 30.86  2.32 69.85                                                             
C 14.76 16.27 11.03                                                             
C 14.76 16.27 25.73                                                             
C 14.76 16.27 40.44                                                             
C 14.76 16.27 55.14                                                             
C 14.76 16.27 69.85                                                             
C 18.79 13.95 11.03                                                             
C 18.79 13.95 25.73                                                             
C 18.79 13.95 40.44                                                             
C 18.79 13.95 55.14                                                             
C 18.79 13.95 69.85                                                             
C 22.81 11.62 11.03                                                             
C 22.81 11.62 25.73                                                             
C 22.81 11.62 40.44                                                             
C 22.81 11.62 55.14                                                             
C 22.81 11.62 69.85                                                             
C 26.84  9.30 11.03                                                             
C 26.84  9.30 25.73                                                             
C 26.84  9.30 40.44                                                             
C 26.84  9.30 55.14                                                             
C 26.84  9.30 69.85                                                             
C 30.86  6.97 11.03                                                             
C 30.86  6.97 25.73                                                             
C 30.86  6.97 40.44                                                             
C 30.86  6.97 55.14                                                             
C 30.86  6.97 69.85                                                             
C 22.81 16.27 11.03                                                             
C 22.81 16.27 25.73                                                             
C 22.81 16.27 40.44                                                             
C 22.81 16.27 55.14                                                             
C 22.81 16.27 69.85                                                             
C 26.84 13.95 11.03                                                             
C 26.84 13.95 25.73                                                             
C 26.84 13.95 40.44                                                             
C 26.84 13.95 55.14                                                             
C 26.84 13.95 69.85                                                             
C 30.86 11.62 11.03                                                             
C 30.86 11.62 25.73                                                             
C 30.86 11.62 40.44                                                             
C 30.86 11.62 55.14                                                             
C 30.86 11.62 69.85                                                             
C 30.86 16.27 11.03                                                             
C 30.86 16.27 25.73                                                             
C 30.86 16.27 40.44                                                             
C 30.86 16.27 55.14                                                             
C 30.86 16.27 69.85                                                             
%ENDBLOCK POSITIONS_ABS                                                         

--------------------------------------------------------------------------------
-------------------------------- END INPUT FILE --------------------------------
--------------------------------------------------------------------------------


 
<<<<<<<<<<<<<<<<<<<<<<<<<<<<<<<<< Full system >>>>>>>>>>>>>>>>>>>>>>>>>>>>>>>>>>
<<<<<<<<<<<<<<<<<<<<<<<<<<< PAW Dataset information >>>>>>>>>>>>>>>>>>>>>>>>>>>
File: ~/pp/paw/c_pbe_abinit.paw; rc = 1.25 bohr; shape type =  3; rshape = 1.25 bohr;
  Atomic number:  6;  ionic charge:  4.000000
    Partial Wave 1: l = 0
    Partial Wave 2: l = 0
    Partial Wave 3: l = 1
    Partial Wave 4: l = 1
  Core charge supplied for Nonlinear Core Corrections
<<<<<<<<<<<<<<<<<<<<<<<<<<<<<<<<<<<<<<< >>>>>>>>>>>>>>>>>>>>>>>>>>>>>>>>>>>>>>>

-------------------------- Atom counting information ---------------------------
Symbol    Natoms    Nngwfs    Nprojs
  C        640      2560      5120
.......   ......    ......    ......
Totals:    640      2560      5120
--------------------------------------------------------------------------------

=============================== PSINC grid sizes ===============================
                      Simulation cell:   63 x  35 x 145
                              FFT-box:   63 x  35 x 117
                                  PPD:    7 x   5 x   1
Grid space d1=  0.511269841270a0 (KE cutoff=  29.06054Eh = 790.77748eV)
Grid space d2=  0.531142857143a0 (KE cutoff=  26.92659Eh = 732.70972eV)
Grid space d3=  0.507034482759a0 (KE cutoff=  29.54806Eh = 804.04369eV)
================================================================================
  
WARNING in cell_grid_distribute:
Average of less than one 23-slab per node, so workload cannot be
equally balanced between nodes.

********************* Fourier parallelisation information **********************
       Coarse grid (whole simulation cell) dimensions:     63    35   145
          Real-space ('12') slabs/node (min max mean):      3     4     3
         Recip-space ('23') slabs/node (min max mean):      0     1     0
********************************************************************************

********************* Fourier parallelisation information **********************
       Double grid (whole simulation cell) dimensions:    126    70   290
          Real-space ('12') slabs/node (min max mean):      7     8     7
         Recip-space ('23') slabs/node (min max mean):      1     2     1
********************************************************************************

Atom SCF Calculation for C  : Z (AE atom) =   6 : Z (PS atom) =   4
Config String: 2s2 2p2
Orbitals (num,occ):  2     2.00 2.00
Orbitals   (num,l):  2        0    1
Real-space Grid (nr,dr,rmax): 1293    0.0069659443    9.0000000000
Spherical Bessel Basis (nsws,lmax,cutoff):   37    2  161.4736382572
Confining potential (l,width,scale):  0    3.0000000000  100.0000000000
Confining potential (l,width,scale):  1    3.0000000000  100.0000000000
  1         -5.4129360987   -1.2444937266    4.5135257941   -1.5420271367
  2         -5.3444202281   -1.3377187790    4.4131101426   -1.5071921700
  3         -5.3525226456   -1.3566567794    4.3924752240   -1.5004938544
  4         -5.3561013121   -1.3623552809    4.3862114699   -1.4986199617
  5         -5.3580093800   -1.3653574582    4.3828991843   -1.4976654093
  6         -5.3590276761   -1.3669475005    4.3811409016   -1.4971696795
  7         -5.3595688314   -1.3677934914    4.3802040659   -1.4969088858
  8         -5.3598556216   -1.3682449178    4.3797036984   -1.4967706290
  9         -5.3600074081   -1.3684862338    4.3794360452   -1.4966970063
 10         -5.3600877081   -1.3686153812    4.3792927313   -1.4966576988
 11         -5.3601301919   -1.3686845537    4.3792159394   -1.4966366788
 12         -5.3601526758   -1.3687216261    4.3791747687   -1.4966254262
 13         -5.3601645804   -1.3687415049    4.3791526850   -1.4966193980
 14         -5.3601708871   -1.3687521691    4.3791408341   -1.4966161667
 15         -5.3601742301   -1.3687578926    4.3791344719   -1.4966144337
 16         -5.3601760032   -1.3687609656    4.3791310549   -1.4966135039
 17         -5.3601769442   -1.3687626162    4.3791292190   -1.4966130048
 18         -5.3601774440   -1.3687635032    4.3791282322   -1.4966127369
 19         -5.3601777096   -1.3687639799    4.3791277016   -1.4966125929
 20         -5.3601778508   -1.3687642363    4.3791274162   -1.4966125155
 21         -5.3601779259   -1.3687643743    4.3791272626   -1.4966124740
Atom SCF converged after  21 iterations to a total energy of     -5.36017793

Determining parallel strategy ...
... using space-filling curve
... NGWF load balancing: max     64;  min     64;  average     64
... Projector load balancing: max    128;  min    128;  average    128
... done
Calculating Ewald energy ...
              Ewald: real-space energy =    9493.015829
        Ewald: reciprocal-space energy =       0.577250
         Ewald: (sum_charge)**2 Energy =   10768.736226
         Ewald: (sum_charge**2) Energy =     851.343350
                          Ewald Energy =   -2126.486497
Basis initialisation ...... NGWF spheres initialised
... Projector spheres initialised
... NGWF tight boxes initialised
... Projector tight boxes initialised
... Tight-boxes gathered
... NGWF basis size (local,global):     692596  27886816
... PAW projector initialisation
... done

============================= Charge Augmentation ==============================
                           Aug box size:   11 x  11 x  11
================================================================================

========================== Sparse matrix information ===========================
                        Overlap matrix filling:  40.31%
                        Density kernel filling: 100.00%
              NGWF-Proj overlap matrix filling:  12.19%
                    Aug Overlap matrix filling:  47.03%
                    Hamiltonian matrix filling:  47.03%
                  NGWF diagonal matrix filling:   0.16%
                             KS matrix filling: 100.00% 
                           KSKS matrix filling: 100.00% 
================================================================================

Sparse matrix initialisation ... done
NGWF initialisation ...... done
============ Calculation of NGWF S^-1 using Hotelling algorithm ================ 
         Iteration  |  Frobenius norm and Maximum abs value    (of I-S*S_n^-1)   
               1       0.48911137E+02     0.97412205E+00
               2       0.47588112E+02     0.95010656E+00
               3       0.45641195E+02     0.90684556E+00
               4       0.43166720E+02     0.83514435E+00
               5       0.40239123E+02     0.72998363E+00
               6       0.36896748E+02     0.67194375E+00
               7       0.33499719E+02     0.62655249E+00
               8       0.30274085E+02     0.58857850E+00
               9       0.26751804E+02     0.54492424E+00
              10       0.22244255E+02     0.47478013E+00
              11       0.16370020E+02     0.36380885E+00
              12       0.96549032E+01     0.21916014E+00
              13       0.38611642E+01     0.85301983E-01
              14       0.73844539E+00     0.14932618E-01
              15       0.32032442E-01     0.56288085E-03
              16       0.77388613E-04     0.10260035E-05
              17       0.68648445E-09     0.55278004E-11
              18       0.73301977E-13     0.39968029E-14
================================================================================
Calculating core density ...
================================= Core Density =================================
               Core den box size:   21 x  21 x  21
================================================================================
 ... done
Up spin density kernel initialisation ...... done

Writing density kernel to file "3.890624_GO_manual_4x64graphite.dkn" ... done

>>> Optimising kernel for current NGWFs:

--------------------------- Ensemble-DFT optimisation --------------------------
Running ScaLAPACK on   40 processor(s).

--------------------------------------------------------------------------------
  Iter                              Commutator    Free_energy(A=E-TS)     DeltaA
#    0                          0.000026128498   -3615.44611524983702  -3.62E+03

Step                       =       0.381966011250
Energy                     =   -3615.446091567322
Entropy (-TS)              =      -0.000023682185
Free energy (A=E-TS)       =   -3615.446115249837
Est. 0K Energy 0.5*(E+A)   =   -3615.446103408579
Residual Non-orthogonality =       0.000000000000
Residual N_electrons       =      -0.000000000330

Spin          Integrated_Ne            Fermi_level     Delta_Fermi_level
   1      2560.000000002238         0.147535084333              1.48E-01

                           Spin 1          
     Orb      H-eigenvalues     Occupancies
       1 |    -0.5775386757    1.0000000000 | 
                          ------
    1276 |     0.1115402380    0.9999884206 | 
    1277 |     0.1120552370    0.9999863758 | 
    1278 |     0.1121638753    0.9999859003 | 
    1279 |     0.1121751265    0.9999858501 | 
    1280 |     0.1126913315    0.9999833451 | 
                 - Gap at zero temperature -
    1281 |     0.1843633143    0.0000089001 | 
    1282 |     0.1843651838    0.0000088949 | 
    1283 |     0.1843677503    0.0000088877 | 
    1284 |     0.1844369727    0.0000086955 | 
    1285 |     0.1844399269    0.0000086874 | 
                          ------
    2560 |     0.9886251214    0.0000000000 | 

                       |  Abs_value |  Threshold | Converged
     Delta_Free_energy |   3.62E+03 |   1.00E-06 |        No
     Delta_Energy      |   3.62E+03 |   1.00E-04 |        No
     Delta_Entropy     |   2.37E-05 |   1.00E-04 |       Yes
     Commutator        |   2.61E-05 |   1.00E-05 |        No
     Delta_Fermi_level |   1.48E-01 |   1.00E-03 |        No

  Line search of the free energy minimum:
  Step_type        Step             Free_energy   Predicted_free_energy
.   Initial    0.000000    -3615.44611524983702
.    Trial1    0.381966    -3615.44694719672361
.    Trial2    0.618034    -3615.44701973478641
. Quadratic    0.550756    -3615.44703357925755    -3615.44703343602805

--------------------------------------------------------------------------------
  Iter                              Commutator    Free_energy(A=E-TS)     DeltaA
#    1                          0.000015597324   -3615.44703357925755  -9.18E-04

Step                       =       0.550755886336
Energy                     =   -3615.447008735270
Entropy (-TS)              =      -0.000024844300
Free energy (A=E-TS)       =   -3615.447033579258
Est. 0K Energy 0.5*(E+A)   =   -3615.447021157264
Residual Non-orthogonality =       0.000000000000
Residual N_electrons       =       0.000000000312

Spin          Integrated_Ne            Fermi_level     Delta_Fermi_level
   1      2559.999999997829         0.143933850422             -3.60E-03

                           Spin 1          
     Orb      H-eigenvalues     Occupancies
       1 |    -0.5815643421    1.0000000000 | 
                          ------
    1276 |     0.1081437506    0.9999876473 | 
    1277 |     0.1086277076    0.9999856076 | 
    1278 |     0.1086317588    0.9999855892 | 
    1279 |     0.1086483890    0.9999855133 | 
    1280 |     0.1091373433    0.9999830947 | 
                 - Gap at zero temperature -
    1281 |     0.1805295238    0.0000095783 | 
    1282 |     0.1805362430    0.0000095580 | 
    1283 |     0.1805486226    0.0000095207 | 
    1284 |     0.1806118885    0.0000093324 | 
    1285 |     0.1806227235    0.0000093005 | 
                          ------
    2560 |     0.9836953073    0.0000000000 | 

                       |  Abs_value |  Threshold | Converged
     Delta_Free_energy |   9.18E-04 |   1.00E-06 |        No
     Delta_Energy      |   9.17E-04 |   1.00E-04 |        No
     Delta_Entropy     |   1.16E-06 |   1.00E-04 |       Yes
     Commutator        |   1.56E-05 |   1.00E-05 |        No
     Delta_Fermi_level |   3.60E-03 |   1.00E-03 |        No

  Line search of the free energy minimum:
  Step_type        Step             Free_energy   Predicted_free_energy
.   Initial    0.000000    -3615.44703357925755
.    Trial1    0.550756    -3615.44698193418299
.    Trial2    0.210370    -3615.44726666014321
. Quadratic    0.262098    -3615.44727616833006    -3615.44727610686186

--------------------------------------------------------------------------------
  Iter                              Commutator    Free_energy(A=E-TS)     DeltaA
#    2                          0.000008291547   -3615.44727616833006  -2.43E-04

Step                       =       0.262097728291
Energy                     =   -3615.447251068998
Entropy (-TS)              =      -0.000025099535
Free energy (A=E-TS)       =   -3615.447276168330
Est. 0K Energy 0.5*(E+A)   =   -3615.447263618664
Residual Non-orthogonality =       0.000000000000
Residual N_electrons       =       0.000000000202

Spin          Integrated_Ne            Fermi_level     Delta_Fermi_level
   1      2559.999999998586         0.143159894040             -7.74E-04

                           Spin 1          
     Orb      H-eigenvalues     Occupancies
       1 |    -0.5824346830    1.0000000000 | 
                          ------
    1276 |     0.1073735983    0.9999876324 | 
    1277 |     0.1078744874    0.9999855131 | 
    1278 |     0.1079000725    0.9999853956 | 
    1279 |     0.1079049193    0.9999853732 | 
    1280 |     0.1084068284    0.9999828612 | 
                 - Gap at zero temperature -
    1281 |     0.1797397228    0.0000096263 | 
    1282 |     0.1797461635    0.0000096068 | 
    1283 |     0.1797596888    0.0000095658 | 
    1284 |     0.1798242629    0.0000093728 | 
    1285 |     0.1798355115    0.0000093395 | 
                          ------
    2560 |     0.9826217106    0.0000000000 | 

                       |  Abs_value |  Threshold | Converged
     Delta_Free_energy |   2.43E-04 |   1.00E-06 |        No
     Delta_Energy      |   2.42E-04 |   1.00E-04 |        No
     Delta_Entropy     |   2.55E-07 |   1.00E-04 |       Yes
     Commutator        |   8.29E-06 |   1.00E-05 |       Yes
     Delta_Fermi_level |   7.74E-04 |   1.00E-03 |       Yes

  Line search of the free energy minimum:
  Step_type        Step             Free_energy   Predicted_free_energy
.   Initial    0.000000    -3615.44727616833006
.    Trial1    0.262098    -3615.44734401534015
.    Trial2    0.543951    -3615.44734947729739
. Quadratic    0.425033    -3615.44735571421734    -3615.44735570338617

--------------------------------------------------------------------------------
  Iter                              Commutator    Free_energy(A=E-TS)     DeltaA
#    3                          0.000005694715   -3615.44735571421734  -7.95E-05

Step                       =       0.425032515656
Energy                     =   -3615.447330311404
Entropy (-TS)              =      -0.000025402869
Free energy (A=E-TS)       =   -3615.447355714217
Est. 0K Energy 0.5*(E+A)   =   -3615.447343012811
Residual Non-orthogonality =       0.000000000000
Residual N_electrons       =       0.000000000055

Spin          Integrated_Ne            Fermi_level     Delta_Fermi_level
   1      2559.999999999610         0.142229205783             -9.31E-04

                           Spin 1          
     Orb      H-eigenvalues     Occupancies
       1 |    -0.5834700580    1.0000000000 | 
                          ------
    1276 |     0.1064650932    0.9999875455 | 
    1277 |     0.1069617318    0.9999854308 | 
    1278 |     0.1070085194    0.9999852140 | 
    1279 |     0.1070141121    0.9999851878 | 
    1280 |     0.1075118022    0.9999826671 | 
                 - Gap at zero temperature -
    1281 |     0.1787759355    0.0000097275 | 
    1282 |     0.1787821366    0.0000097085 | 
    1283 |     0.1787967327    0.0000096638 | 
    1284 |     0.1788624970    0.0000094652 | 
    1285 |     0.1788741281    0.0000094305 | 
                          ------
    2560 |     0.9813505081    0.0000000000 | 

                       |  Abs_value |  Threshold | Converged
     Delta_Free_energy |   7.95E-05 |   1.00E-06 |        No
     Delta_Energy      |   7.92E-05 |   1.00E-04 |       Yes
     Delta_Entropy     |   3.03E-07 |   1.00E-04 |       Yes
     Commutator        |   5.69E-06 |   1.00E-05 |       Yes
     Delta_Fermi_level |   9.31E-04 |   1.00E-03 |       Yes

  Line search of the free energy minimum:
  Step_type        Step             Free_energy   Predicted_free_energy
.   Initial    0.000000    -3615.44735571421734
.    Trial1    0.425033    -3615.44737614902078
.    Trial2    0.644651    -3615.44732277726507
. Quadratic    0.265752    -3615.44738759066831    -3615.44738760527525

--------------------------------------------------------------------------------
  Iter                              Commutator    Free_energy(A=E-TS)     DeltaA
#    4                          0.000003408418   -3615.44738759066831  -3.19E-05

Step                       =       0.265751827848
Energy                     =   -3615.447362078215
Entropy (-TS)              =      -0.000025512150
Free energy (A=E-TS)       =   -3615.447387590668
[...]
 C   160 -- C   385       -0.10      5.37000
 C   159 -- C   384       -0.10      5.37000
 C   158 -- C   383       -0.10      5.37000
 C   157 -- C   382       -0.10      5.37000
 C   156 -- C   381       -0.10      5.37000
 C   155 -- C   355       -0.10      5.37000
 C   154 -- C   354       -0.10      5.37000
 C   153 -- C   353       -0.10      5.37000
 C   152 -- C   352       -0.10      5.37000
 C   151 -- C   351       -0.10      5.37000
 C   140 -- C   335       -0.10      5.37000
 C   139 -- C   334       -0.10      5.37000
 C   138 -- C   333       -0.10      5.37000
 C   137 -- C   332       -0.10      5.37000
 C   136 -- C   331       -0.10      5.37000
 C   115 -- C   325       -0.10      5.37000
 C   114 -- C   324       -0.10      5.37000
 C   113 -- C   323       -0.10      5.37000
 C   112 -- C   322       -0.10      5.37000
 C   111 -- C   321       -0.10      5.37000
 C   219 -- C   569       -0.10      5.37202
 C   218 -- C   568       -0.10      5.37202
 C   217 -- C   567       -0.10      5.37202
 C   216 -- C   566       -0.10      5.37202
 C   250 -- C   540       -0.10      5.37202
 C   249 -- C   539       -0.10      5.37202
 C   248 -- C   538       -0.10      5.37202
 C   247 -- C   537       -0.10      5.37202
 C   246 -- C   536       -0.10      5.37202
 C   220 -- C   570       -0.10      5.37202
 C   285 -- C   580       -0.10      5.37202
 C   284 -- C   579       -0.10      5.37202
 C   283 -- C   578       -0.10      5.37202
 C   282 -- C   577       -0.10      5.37202
 C   281 -- C   576       -0.10      5.37202
 C   260 -- C   605       -0.10      5.37202
 C   259 -- C   604       -0.10      5.37202
 C   258 -- C   603       -0.10      5.37202
 C   257 -- C   602       -0.10      5.37202
 C   256 -- C   601       -0.10      5.37202
 C   220 -- C   515       -0.10      5.37202
 C   219 -- C   514       -0.10      5.37202
 C   218 -- C   513       -0.10      5.37202
 C   217 -- C   512       -0.10      5.37202
 C   216 -- C   511       -0.10      5.37202
 C   195 -- C   540       -0.10      5.37202
 C   195 -- C   500       -0.10      5.37202
 C   194 -- C   539       -0.10      5.37202
 C   194 -- C   499       -0.10      5.37202
 C   193 -- C   538       -0.10      5.37202
 C   193 -- C   498       -0.10      5.37202
 C   192 -- C   537       -0.10      5.37202
 C   192 -- C   497       -0.10      5.37202
 C   191 -- C   536       -0.10      5.37202
 C   191 -- C   496       -0.10      5.37202
 C   180 -- C   515       -0.10      5.37202
 C   179 -- C   514       -0.10      5.37202
 C   178 -- C   513       -0.10      5.37202
 C   177 -- C   512       -0.10      5.37202
 C   176 -- C   511       -0.10      5.37202
 C    11 -- C   331       -0.10      5.37202
 C   205 -- C   550       -0.10      5.37202
 C   204 -- C   549       -0.10      5.37202
 C   203 -- C   548       -0.10      5.37202
 C   202 -- C   547       -0.10      5.37202
 C   201 -- C   546       -0.10      5.37202
 C    95 -- C   425       -0.10      5.37202
 C    95 -- C   365       -0.10      5.37202
 C    94 -- C   424       -0.10      5.37202
 C    94 -- C   364       -0.10      5.37202
 C    93 -- C   423       -0.10      5.37202
 C    93 -- C   363       -0.10      5.37202
 C    92 -- C   422       -0.10      5.37202
 C    92 -- C   362       -0.10      5.37202
 C    91 -- C   421       -0.10      5.37202
 C    91 -- C   361       -0.10      5.37202
 C    40 -- C   365       -0.10      5.37202
 C    39 -- C   364       -0.10      5.37202
 C    38 -- C   363       -0.10      5.37202
 C    37 -- C   362       -0.10      5.37202
 C    36 -- C   361       -0.10      5.37202
 C    15 -- C   335       -0.10      5.37202
 C    65 -- C   395       -0.10      5.37202
 C    65 -- C   345       -0.10      5.37202
 C    64 -- C   394       -0.10      5.37202
 C    64 -- C   344       -0.10      5.37202
 C    63 -- C   393       -0.10      5.37202
 C    30 -- C   355       -0.10      5.37202
 C    63 -- C   343       -0.10      5.37202
 C    62 -- C   392       -0.10      5.37202
 C    30 -- C   325       -0.10      5.37202
 C    14 -- C   334       -0.10      5.37202
 C    62 -- C   342       -0.10      5.37202
 C    61 -- C   391       -0.10      5.37202
 C    29 -- C   354       -0.10      5.37202
 C    61 -- C   341       -0.10      5.37202
 C    29 -- C   324       -0.10      5.37202
 C   260 -- C   550       -0.10      5.37202
 C   259 -- C   549       -0.10      5.37202
 C    28 -- C   353       -0.10      5.37202
 C   258 -- C   548       -0.10      5.37202
 C   257 -- C   547       -0.10      5.37202
 C   256 -- C   546       -0.10      5.37202
 C    28 -- C   323       -0.10      5.37202
 C    27 -- C   352       -0.10      5.37202
 C    13 -- C   333       -0.10      5.37202
 C    27 -- C   322       -0.10      5.37202
 C   120 -- C   395       -0.10      5.37202
 C    26 -- C   351       -0.10      5.37202
 C   119 -- C   394       -0.10      5.37202
 C   118 -- C   393       -0.10      5.37202
 C    55 -- C   335       -0.10      5.37202
 C   117 -- C   392       -0.10      5.37202
 C    26 -- C   321       -0.10      5.37202
 C   116 -- C   391       -0.10      5.37202
 C    54 -- C   334       -0.10      5.37202
 C    12 -- C   332       -0.10      5.37202
 C    53 -- C   333       -0.10      5.37202
 C   230 -- C   580       -0.10      5.37202
 C   230 -- C   525       -0.10      5.37202
 C   229 -- C   579       -0.10      5.37202
 C   229 -- C   524       -0.10      5.37202
 C   228 -- C   578       -0.10      5.37202
 C    52 -- C   332       -0.10      5.37202
 C   228 -- C   523       -0.10      5.37202
 C   227 -- C   577       -0.10      5.37202
 C   227 -- C   522       -0.10      5.37202
 C   226 -- C   576       -0.10      5.37202
 C   226 -- C   521       -0.10      5.37202
 C    51 -- C   331       -0.10      5.37202
 C    23 -- C   478       -0.10      5.37202
 C    49 -- C   469       -0.10      5.37202
 C    48 -- C   468       -0.10      5.37202
 C    47 -- C   467       -0.10      5.37202
 C    22 -- C   477       -0.10      5.37202
 C    46 -- C   466       -0.10      5.37202
 C    21 -- C   476       -0.10      5.37202
 C    85 -- C   355       -0.10      5.37202
 C    84 -- C   354       -0.10      5.37202
 C    83 -- C   353       -0.10      5.37202
 C    82 -- C   352       -0.10      5.37202
 C    81 -- C   351       -0.10      5.37202
 C    55 -- C   385       -0.10      5.37202
 C    54 -- C   384       -0.10      5.37202
 C    25 -- C   480       -0.10      5.37202
 C    53 -- C   383       -0.10      5.37202
 C    52 -- C   382       -0.10      5.37202
 C    51 -- C   381       -0.10      5.37202
 C    24 -- C   479       -0.10      5.37202
 C    50 -- C   470       -0.10      5.37202
 C    24 -- C   449       -0.10      5.37202
 C     6 -- C   416       -0.10      5.37202
 C    23 -- C   448       -0.10      5.37202
 C    22 -- C   447       -0.10      5.37202
 C    10 -- C   470       -0.10      5.37202
 C     5 -- C   450       -0.10      5.37202
 C    21 -- C   446       -0.10      5.37202
 C    10 -- C   420       -0.10      5.37202
 C     9 -- C   469       -0.10      5.37202
 C     9 -- C   419       -0.10      5.37202
 C     8 -- C   468       -0.10      5.37202
 C     4 -- C   449       -0.10      5.37202
 C   150 -- C   440       -0.10      5.37202
 C   149 -- C   439       -0.10      5.37202
 C   148 -- C   438       -0.10      5.37202
 C   147 -- C   437       -0.10      5.37202
 C     8 -- C   418       -0.10      5.37202
 C   146 -- C   436       -0.10      5.37202
 C     2 -- C   447       -0.10      5.37202
 C   135 -- C   460       -0.10      5.37202
 C     7 -- C   467       -0.10      5.37202
 C   134 -- C   459       -0.10      5.37202
 C   133 -- C   458       -0.10      5.37202
 C   132 -- C   457       -0.10      5.37202
 C   131 -- C   456       -0.10      5.37202
 C     7 -- C   417       -0.10      5.37202
 C     1 -- C   446       -0.10      5.37202
 C     6 -- C   466       -0.10      5.37202
 C    25 -- C   450       -0.10      5.37202
 C     3 -- C   448       -0.10      5.37202
 C   106 -- C   436       -0.10      5.37202
 C   106 -- C   376       -0.10      5.37202
 C    80 -- C   410       -0.10      5.37202
 C    79 -- C   409       -0.10      5.37202
 C    78 -- C   408       -0.10      5.37202
 C    77 -- C   407       -0.10      5.37202
 C    76 -- C   406       -0.10      5.37202
 C   135 -- C   410       -0.10      5.37202
 C   134 -- C   409       -0.10      5.37202
 C   133 -- C   408       -0.10      5.37202
 C   132 -- C   407       -0.10      5.37202
 C   131 -- C   406       -0.10      5.37202
 C   110 -- C   440       -0.10      5.37202
 C   110 -- C   380       -0.10      5.37202
 C   109 -- C   439       -0.10      5.37202
 C   109 -- C   379       -0.10      5.37202
 C   108 -- C   438       -0.10      5.37202
 C   108 -- C   378       -0.10      5.37202
 C   107 -- C   437       -0.10      5.37202
 C   107 -- C   377       -0.10      5.37202
 C   215 -- C   635       -0.10      5.38000
 C   214 -- C   634       -0.10      5.38000
 C   213 -- C   633       -0.10      5.38000
 C   212 -- C   632       -0.10      5.38000
 C   211 -- C   631       -0.10      5.38000
 C   190 -- C   620       -0.10      5.38000
 C   189 -- C   619       -0.10      5.38000
 C   188 -- C   618       -0.10      5.38000
 C   187 -- C   617       -0.10      5.38000
 C   186 -- C   616       -0.10      5.38000
 C   175 -- C   595       -0.10      5.38000
 C   174 -- C   594       -0.10      5.38000
 C   173 -- C   593       -0.10      5.38000
 C   172 -- C   592       -0.10      5.38000
 C   171 -- C   591       -0.10      5.38000
 C   245 -- C   640       -0.10      5.38000
 C   244 -- C   639       -0.10      5.38000
 C   243 -- C   638       -0.10      5.38000
 C   242 -- C   637       -0.10      5.38000
 C   241 -- C   636       -0.10      5.38000
==================================================


=================== Orbital energy and occupancy information ===================

      Total number of orbitals:    2560
        Occupancy sum (kernel):    1279.999999999
   Occupancy sum (eigenvalues):    1279.999999999
                 HOMO-LUMO gap:       0.067999315 Eh
                 Mid-gap level:       0.202091390 Eh

                        Orbital | Energy (Eh) | Occupancy
                            1    -0.515690705   1.0000000
                        .......   ...........   .........
                         1271     0.164669259   0.9999890
                         1272     0.164685968   0.9999889
                         1273     0.165143089   0.9999872
                         1274     0.165159808   0.9999871
                         1275     0.166854208   0.9999780
                         1276     0.166867378   0.9999779
                         1277     0.167328401   0.9999745
                         1278     0.167341564   0.9999744
                         1279     0.167618340   0.9999720
                         1280     0.168091732   0.9999675
                        ....... -- gap at 0K -- .........
                         1281     0.236091048   0.0000143
                         1282     0.236095341   0.0000143
                         1283     0.236325461   0.0000133
                         1284     0.236326499   0.0000133
                         1285     0.236332161   0.0000133
                         1286     0.236336486   0.0000133
                         1287     0.236481987   0.0000127
                         1288     0.236574468   0.0000123
                         1289     0.236575416   0.0000123
                         1290     0.236625113   0.0000121
                        .......   ...........   .........
                         2560     1.104307774   0.0000000

================================================================================

===================== Writing canonical molecular orbitals =====================
| Orbital  Energy (eV)  Norm     |
| HOMO      4.57400877  1.000000 | Writing "3.890624_GO_manual_4x64graphite_HOMO.cube" ... done
Writing "3.890624_GO_manual_4x64graphite_HOMO.dx" ... done
| LUMO      6.42436430  1.000000 | Writing "3.890624_GO_manual_4x64graphite_LUMO.cube" ... done
Writing "3.890624_GO_manual_4x64graphite_LUMO.dx" ... done
================================================================================
 
===================== Density of States (DOS) calculation ======================
Writing "3.890624_GO_manual_4x64graphite_DOS.txt" ...  done
================================================================================
 
Writing bands to file "3.890624_GO_manual_4x64graphite.val_bands" ... done
 
================ Projected Density of States (pDOS) calculation ================
 
Constructing AM resolved functions  ...... done
Writing NGWF plot files in formats: CUBE DX ...  done
 
Performing overlap integrals ...  done
 
Computing pDOS weights ...  done
 
All bands spilling parameter =   2.96 %
Occupancy-weighted spilling parameter =   0.95 %
 
 => Outputting data for OptaDOS <=
 
Writing pDOS weights to file "3.890624_GO_manual_4x64graphite.val_pdos_bin" ... done
 
Writing band gradients to file "3.890624_GO_manual_4x64graphite.val_dome_bin" ... done
 
Writing Castep output cell file to "3.890624_GO_manual_4x64graphite-out.cell" ... done
 
 => Computing Gaussian smeared pDOS <= 
Writing "3.890624_GO_manual_4x64graphite_PDOS.txt" ...  done
 
 => Computing Occupancy-weighted Gaussian smeared pDOS <= 
Writing "3.890624_GO_manual_4x64graphite_occ_PDOS.txt" ...  done
  => Band centres: 
 S band centre of group 1:  -13.664818 eV
 P band centre of group 1:   -6.588388 eV
  Band centres done. <=
  => Integrated number of electrons in each AM band: 
 S num electrons of group 1:  571.410398
 P num electrons of group 1: 1964.342537
  Integrated number of electrons done. <=
================================================================================

------------------------------ TIMING INFORMATION ------------------------------
AVERAGE TIME:    2964.092s on     40 node(s)                                    
TOTAL TIME:      2964.092s on     40 node(s)                                    
================= AVERAGE TIMINGS FROM ALL NODES (CUMULATIVE) ==================
|| TAG                                    #calls    cpu time   %total  Gflops ||
|| work_imbalance                       :     1        0.00s   0.000%  ------ ||
|| paw_tcore_hartree_on_grid            :     1        0.01s   0.000%  ------ ||
|| paw_tcore_density                    :     1        0.01s   0.000%  ------ ||
|| paw_sphere_density_on_grid           :     1        0.01s   0.000%  ------ ||
|| sparse_set_to_garbage                :   135        0.02s   0.001%  ------ ||
|| paw_dij_hartree                      :   268        0.03s   0.001%  ------ ||
|| pseudo_make_structure_factor         :     1        0.06s   0.002%  ------ ||
|| basis_extract_function_from_box      :  1536        0.06s   0.002%  ------ ||
|| paw_species_calc_proj_prec_mat       :     1        0.12s   0.004%  ------ ||
|| paw_dataset_init                     :     1        0.15s   0.005%  ------ ||
|| density_init_guess_real              :     1        0.17s   0.006%  ------ ||
|| restart_kernel_write                 :    13        0.62s   0.021%  ------ ||
|| ngwfs_initialise_from_radial         :     2        0.67s   0.023%  ------ ||
|| sparse_init                          :     1        0.87s   0.029%  ------ ||
|| hartree_on_grid                      :   202        1.28s   0.043%  ------ ||
|| dense_normal_eigensolve              :     1        1.28s   0.043%  ------ ||
|| projectors_init_fftbox_recip         :   121        2.31s   0.078%  ------ ||
|| ewald_calculate_energy               :     1        3.40s   0.115%  ------ ||
|| fourier_apply_box_pair               :  2272        3.76s   0.127% 560.937 ||
|| basis_copy_function_to_box           : 19264        4.15s   0.140%  ------ ||
|| augmentation_screen_dij              :   207        4.52s   0.152%  ------ ||
|| sparse_embed_hotelling_invert_embed  :    23        6.48s   0.218%  ------ ||
|| sw_init                              :     1        6.73s   0.227%  ------ ||
|| ngwf_gradient_coeffs                 :    12        8.55s   0.289%  ------ ||
|| sparse_trace                         :  2422       11.58s   0.391%  ------ ||
|| cell_grid_extract_box_real           :  8124       13.46s   0.454%  ------ ||
|| fourier_apply_cell_backward          :  6233       15.60s   0.526%  54.964 ||
|| fourier_apply_cell_forward           :  5830       17.31s   0.584%  46.333 ||
|| cell_grid_deposit_box_real           : 26032       18.14s   0.612%  ------ ||
|| paw_dij_xc                           :   268       21.30s   0.719%  ------ ||
|| aug_nonlocal_mat                     :   256       29.56s   0.997%  ------ ||
|| augmentation_density_on_grid         :   202       35.98s   1.214%  ------ ||
|| density_fftbox_deposit_to_cell       : 12928       37.50s   1.265%  ------ ||
|| hamiltonian_energy_components        :     3       46.72s   1.576%  ------ ||
|| eigenstates_pdos                     :     1       47.40s   1.599%  ------ ||
|| function_ops_brappd_ketppd           :    48       48.62s   1.640%  ------ ||
|| eigenstates_calculate                :     1       51.52s   1.738%  ------ ||
|| projectors_func_ovlp_box             :    24       53.16s   1.794%  ------ ||
|| xc_energy_potential                  :   201       68.23s   2.302%  ------ ||
|| nlxc_vdw_energy                      :   402       73.36s   2.475%  ------ ||
|| integrals_kinetic                    :    23       75.29s   2.540%  ------ ||
|| dense_eigensolve                     :   175       88.21s   2.976%  ------ ||
|| properties_calculate                 :     1       94.13s   3.176%  ------ ||
|| sparse_product                       :  2477       99.43s   3.354%  ------ ||
|| potential_apply_to_ngwf_batch        :   252      100.12s   3.378%  ------ ||
|| restart_ngwfs_tightbox_output        :    11      115.20s   3.886%  ------ ||
|| basis_dot_function_with_box          : 5.880M     158.41s   5.344%  ------ ||
|| fourier_apply_box                    : 60896      188.41s   6.357% 978.948 ||
|| edft_diag_ngwf_ham                   :   174      195.14s   6.583%  ------ ||
|| integrals_locpot_mat_els_batch       :   252      207.82s   7.011%  ------ ||
|| projectors_gradient_batch            :    48      215.38s   7.266%  ------ ||
|| density_fftbox_interpolate_multiply  : 12928      250.39s   8.447%  ------ ||
|| projectors_grad_precond_batch        :    48      297.44s  10.035%  ------ ||
|| integrals_locpot_dbl_grid            :    63      309.10s  10.428%  ------ ||
|| density_batch_interp_deposit         :   808      321.25s  10.838%  ------ ||
|| edft_apply_smearing_operator         :   174      378.37s  12.765%  ------ ||
|| basis_add_function_to_box            : 16.51M     430.01s  14.507%  ------ ||
|| ngwf_gradient_build_batch            :    48      549.25s  18.530%  ------ ||
|| density_batch_row_sums               :   808      600.94s  20.274%  ------ ||
|| ngwf_gradient_batch                  :    48      722.56s  24.377%  ------ ||
|| ngwf_gradient_lnv                    :    12      741.76s  25.025%  ------ ||
|| density_on_dbl_grid                  :   202      933.01s  31.477%  ------ ||
|| hamiltonian_lhxc_calculate           :   197     1019.31s  34.389%  ------ ||
|| edft_calculate                       :    12     1687.03s  56.916%  ------ ||
|| ngwf_cg_optimise                     :     1     2849.89s  96.147%  ------ ||
|| total_time                           :     1     2964.09s 100.000%  ------ ||
================================================================================
Overhead of generating timer report: 
- 0 ms averaging over threads,
- 5 ms ensuring consistency across MPI ranks,
- 0 ms printing in order.

Job completed: 29-02-2020 08:05 (-0000)

