 +---------------------------------------------------------------+
 |                                                               |
 |        ####### #     # ####### ####### ####### ######         |
 |        #     # ##    # #          #    #       #     #        |
 |        #     # # #   # #          #    #       #     #        |
 |        #     # #  #  # #####      #    #####   ######         |
 |        #     # #   # # #          #    #       #              |
 |        #     # #    ## #          #    #       #              |
 |        ####### #     # #######    #    ####### #              |
 |                                                               |
 |        Linear-Scaling Ab Initio Total Energy Program          |
 |                                                               |
 |          Release for academic collaborators of ODG            |
 |                                             Version 5.3.2.12  |
 |                                                               |
 +---------------------------------------------------------------+
 |                                                               |
 |  Authors:                                                     |
 |  Jacek Dziedzic, Peter D. Haynes, Nicholas D. M. Hine,        |
 |  Arash. A. Mostofi, Mike C. Payne and Chris-Kriton Skylaris   |
 |                                                               |
 |  Contributors:                                                |
 |  J. Aarons, L. Andrinopoulos, P. W. Avraam, R. A. Bell,       |
 |  A. Bhandari, G. A. Bramley, R. J. Charlton, S. J. Clark,     |
 |  R. J. Clements, G. C. Constantinescu, F. Corsetti,           |
 |  N. Corsini, O. Dieguez, S. M. M. Dubois, K. K. B. Duff,      |
 |  J. M. Escartin, A. Greco, H. Helal, Q. O. Hill, L. P. Lee,   |
 |  J.-H. Li, E. B. Linscott, G. Moynihan, D. D. O`Regan,        |
 |  O. K. Okan, M. J. S. Phipps, C. J. Pickard,                  |
 |  J. C. A. Prentice, M. I. J. Probert, L. E. Ratcliff,         |
 |  M. Robinson, A. Ruiz Serrano, J. S. Spencer, E. W. Tait,     |
 |  G. Teobaldi, D. Turban, V. Vitale, K. A. Wilkinson,          |
 |  C. Weber, J. C. Womack, N. Yeung and T. J. Zuehlsdorff       |
 |                                                               |
 |                                   Copyright (c) 2004-2020     |
 |                                                               |
 |  Please cite:                                                 |
 |  "Introducing ONETEP: Linear-scaling density functional       |
 |   simulations on parallel computers".                         |
 |   C.-K. Skylaris, P. D. Haynes, A. A. Mostofi, M. C. Payne.   |
 |   J. Chem. Phys. 122 084119 (2005).                           |
 |                                                               |
 |          in all publications arising from your use of ONETEP. |
 |                                                               |
 +---------------------------------------------------------------+
 |                                                               |
 |   ONETEP is based on developments described in the following  |
 |   publications:                                               |
 |                                                               |
 |  "Nonorthogonal generalized Wannier function pseudopotential  |
 |   plane-wave method".                                         |
 |   C.-K. Skylaris, A. A. Mostofi, P. D. Haynes, O. Dieguez,    |
 |   M. C. Payne.                                                |
 |   Phys. Rev. B 66 035119 (2002).                              |
 |                                                               |
 |  "Preconditioned iterative minimization for linear-scaling    |
 |   electronic structure calculations".                         |
 |   A. A. Mostofi, P. D. Haynes, C.-K. Skylaris, M. C. Payne.   |
 |   J. Chem. Phys. 119(17), pp.8842-8848 (2003).                |
 |                                                               |
 |  "Total-energy calculations on a real space grid with         |
 |   localized functions and a plane-wave basis".                |
 |   A. A. Mostofi, C.-K. Skylaris, P. D. Haynes, M. C. Payne.   |
 |   Comput. Phys. Commun. 147, pp.788-802 (2002).               |
 |                                                               |
 |  "Accurate kinetic energy evaluation in electronic structure  |
 |   calculations with localized functions on real space grids"  |
 |   C.-K. Skylaris, A. A. Mostofi, P. D. Haynes, C. J. Pickard, |
 |   M. C. Payne.                                                |
 |   Comput. Phys. Commun. 140, pp.315-322 (2001).               |
 |                                                               |
 |  "Accurate ionic forces and geometry optimization in linear-  |
 |   scaling density-functional theory with local orbitals"      |
 |   N. D. M. Hine, M. Robinson, P. D. Haynes, C.-K. Skylaris,   |
 |   M. C. Payne, and A. A. Mostofi.                             |
 |   Phys. Rev. B 83 195102 (2011).                              |
 |                                                               |
 +---------------------------------------------------------------+

Job started: 05-03-2020 09:27 (-0000)
 
Reading parameters from file "4.158936_GO_manual_4x64graphite.dat" ...

WARNING: "cutoff_energy" not specified, but "psinc_spacing" specified.
         Using the latter to set the KE cutoff energy to  732.32021eV,
         thus *overriding* the default.

... done

If your calculation crashes here, before "Checking processes and threads..."
is displayed, then your stack size is insufficient.
If so, use "ulimit -s unlimited" at runtime.
You can disable this check with "check_stack_size F".

Checking processes and threads...
   Determining the default number of threads...
      No default threads set at compilation time: defaulting to 1.
      OpenMP library call suggests 4 threads.
      Hybrid MPI-OpenMP compilation detected.
      Number of MPI processes > 1.
      OMP_NUM_THREADS environment variable present and
      its value matches the one obtained from the OpenMP library call.
      Using this value as default.
      Default threads: 4
      Default applies to threads_max and threads_num_fftboxes.
      Settings in the input file override this default.
   ... done

   Running with 40 MPI processes.
   There are 10 MPI processes running on the same node as the root process.
   Each MPI process is using: 
               1 threads for simulation cell FFTs.
               1 threads for parallel FFT box operations.
               4 threads for loops over batched FFT box operations.
               4 threads in other parallel regions.
... done

Basic input checks...
Resetting ngwf_cg_rotate to TRUE for EDFT calculations
... done

Reading geometry and species blocks from file "4.158936_GO_manual_4x64graphite.dat" ...
    
  PSINC grid spacing along a1 set to   0.511215680000a0 from input file.
  PSINC grid spacing along a2 set to   0.531284090000a0 from input file.
  PSINC grid spacing along a3 set to   0.507049430000a0 from input file.
  Number of PPD points along a3 set to 1.  This is 
  the default value, it may have been provided also in the input file.
... done
 Writing xyz coordinates to file "4.158936_GO_manual_4x64graphite.xyz" ... done


--------------------------------------------------------------------------------
---------------------------------- INPUT FILE ----------------------------------
--------------------------------------------------------------------------------

task : singlepoint                                                              
do_properties : true                                                            
dx_format T                                                                     
edft T                                                                          
output_detail VERBOSE                                                           
write_xyz T                                                                     
xc_functional AVV10S                                                            
PSINC_SPACING 0.51121568 0.53128409 0.50704943                                  
paw T                                                                           
pdos_max_l = 2                                                                  
dos_smear  0.1 eV                                                               
popn_calculate T                                                                
PDOS_PSEUDOATOMIC T                                                             
PDOS_REDUCE_SWS F                                                               
PDOS_CONSTRUCT_BASIS F                                                          
PDOS_LOWDIN T                                                                   
PDOS_ORTH_ATOM_BLOCKS F                                                         
PDOS_LCAO_OPTIMIZE F                                                            
pdos_optados_output T                                                           
homo_plot 0                                                                     
lumo_plot 0                                                                     
homo_dens_plot -1                                                               
lumo_dens_plot -1                                                               
%BLOCK SPECIES                                                                  
C C 6 4 9.0                                                                     
%ENDBLOCK SPECIES                                                               
%BLOCK SPECIES_POT                                                              
C "~/pp/paw/c_pbe_abinit.paw"                                                   
%ENDBLOCK SPECIES_POT                                                           
%BLOCK SPECIES_ATOMIC_SET                                                       
C "SOLVE conf=2s2 2p2"                                                          
%ENDBLOCK SPECIES_ATOMIC_SET                                                    
%BLOCK LATTICE_CART                                                             
32.21  0.00  0.00                                                               
0.00 18.59  0.00                                                                
0.00  0.00 78.59                                                                
%ENDBLOCK LATTICE_CART                                                          
%BLOCK POSITIONS_ABS                                                            
C  0.00  0.00  3.93                                                             
C  0.00  0.00 19.65                                                             
C  0.00  0.00 35.37                                                             
C  0.00  0.00 51.09                                                             
C  0.00  0.00 66.80                                                             
C  0.00  4.65  3.93                                                             
C  0.00  4.65 19.65                                                             
C  0.00  4.65 35.37                                                             
C  0.00  4.65 51.09                                                             
C  0.00  4.65 66.80                                                             
C  4.03  2.32  3.93                                                             
C  4.03  2.32 19.65                                                             
C  4.03  2.32 35.37                                                             
C  4.03  2.32 51.09                                                             
C  4.03  2.32 66.80                                                             
C  8.05  0.00  3.93                                                             
C  8.05  0.00 19.65                                                             
C  8.05  0.00 35.37                                                             
C  8.05  0.00 51.09                                                             
C  8.05  0.00 66.80                                                             
C  0.00  9.30  3.93                                                             
C  0.00  9.30 19.65                                                             
C  0.00  9.30 35.37                                                             
C  0.00  9.30 51.09                                                             
C  0.00  9.30 66.80                                                             
C  4.03  6.97  3.93                                                             
C  4.03  6.97 19.65                                                             
C  4.03  6.97 35.37                                                             
C  4.03  6.97 51.09                                                             
C  4.03  6.97 66.80                                                             
C  8.05  4.65  3.93                                                             
C  8.05  4.65 19.65                                                             
C  8.05  4.65 35.37                                                             
C  8.05  4.65 51.09                                                             
C  8.05  4.65 66.80                                                             
C 12.08  2.32  3.93                                                             
C 12.08  2.32 19.65                                                             
C 12.08  2.32 35.37                                                             
C 12.08  2.32 51.09                                                             
C 12.08  2.32 66.80                                                             
C 16.10  0.00  3.93                                                             
C 16.10  0.00 19.65                                                             
C 16.10  0.00 35.37                                                             
C 16.10  0.00 51.09                                                             
C 16.10  0.00 66.80                                                             
C  0.00 13.95  3.93                                                             
C  0.00 13.95 19.65                                                             
C  0.00 13.95 35.37                                                             
C  0.00 13.95 51.09                                                             
C  0.00 13.95 66.80                                                             
C  4.03 11.62  3.93                                                             
C  4.03 11.62 19.65                                                             
C  4.03 11.62 35.37                                                             
C  4.03 11.62 51.09                                                             
C  4.03 11.62 66.80                                                             
C  8.05  9.30  3.93                                                             
C  8.05  9.30 19.65                                                             
C  8.05  9.30 35.37                                                             
C  8.05  9.30 51.09                                                             
C  8.05  9.30 66.80                                                             
C 12.08  6.97  3.93                                                             
C 12.08  6.97 19.65                                                             
C 12.08  6.97 35.37                                                             
C 12.08  6.97 51.09                                                             
C 12.08  6.97 66.80                                                             
C 16.10  4.65  3.93                                                             
C 16.10  4.65 19.65                                                             
C 16.10  4.65 35.37                                                             
C 16.10  4.65 51.09                                                             
C 16.10  4.65 66.80                                                             
C 20.13  2.32  3.93                                                             
C 20.13  2.32 19.65                                                             
C 20.13  2.32 35.37                                                             
C 20.13  2.32 51.09                                                             
C 20.13  2.32 66.80                                                             
C 24.16  0.00  3.93                                                             
C 24.16  0.00 19.65                                                             
C 24.16  0.00 35.37                                                             
C 24.16  0.00 51.09                                                             
C 24.16  0.00 66.80                                                             
C  4.03 16.27  3.93                                                             
C  4.03 16.27 19.65                                                             
C  4.03 16.27 35.37                                                             
C  4.03 16.27 51.09                                                             
C  4.03 16.27 66.80                                                             
C  8.05 13.95  3.93                                                             
C  8.05 13.95 19.65                                                             
C  8.05 13.95 35.37                                                             
C  8.05 13.95 51.09                                                             
C  8.05 13.95 66.80                                                             
C 12.08 11.62  3.93                                                             
C 12.08 11.62 19.65                                                             
C 12.08 11.62 35.37                                                             
C 12.08 11.62 51.09                                                             
C 12.08 11.62 66.80                                                             
C 16.10  9.30  3.93                                                             
C 16.10  9.30 19.65                                                             
C 16.10  9.30 35.37                                                             
C 16.10  9.30 51.09                                                             
C 16.10  9.30 66.80                                                             
C 20.13  6.97  3.93                                                             
C 20.13  6.97 19.65                                                             
C 20.13  6.97 35.37                                                             
C 20.13  6.97 51.09                                                             
C 20.13  6.97 66.80                                                             
C 24.16  4.65  3.93                                                             
C 24.16  4.65 19.65                                                             
C 24.16  4.65 35.37                                                             
C 24.16  4.65 51.09                                                             
C 24.16  4.65 66.80                                                             
C 28.18  2.32  3.93                                                             
C 28.18  2.32 19.65                                                             
C 28.18  2.32 35.37                                                             
C 28.18  2.32 51.09                                                             
C 28.18  2.32 66.80                                                             
C 12.08 16.27  3.93                                                             
C 12.08 16.27 19.65                                                             
C 12.08 16.27 35.37                                                             
C 12.08 16.27 51.09                                                             
C 12.08 16.27 66.80                                                             
C 16.10 13.95  3.93                                                             
C 16.10 13.95 19.65                                                             
C 16.10 13.95 35.37                                                             
C 16.10 13.95 51.09                                                             
C 16.10 13.95 66.80                                                             
C 20.13 11.62  3.93                                                             
C 20.13 11.62 19.65                                                             
C 20.13 11.62 35.37                                                             
C 20.13 11.62 51.09                                                             
C 20.13 11.62 66.80                                                             
C 24.16  9.30  3.93                                                             
C 24.16  9.30 19.65                                                             
C 24.16  9.30 35.37                                                             
C 24.16  9.30 51.09                                                             
C 24.16  9.30 66.80                                                             
C 28.18  6.97  3.93                                                             
C 28.18  6.97 19.65                                                             
C 28.18  6.97 35.37                                                             
C 28.18  6.97 51.09                                                             
C 28.18  6.97 66.80                                                             
C 20.13 16.27  3.93                                                             
C 20.13 16.27 19.65                                                             
C 20.13 16.27 35.37                                                             
C 20.13 16.27 51.09                                                             
C 20.13 16.27 66.80                                                             
C 24.16 13.95  3.93                                                             
C 24.16 13.95 19.65                                                             
C 24.16 13.95 35.37                                                             
C 24.16 13.95 51.09                                                             
C 24.16 13.95 66.80                                                             
C 28.18 11.62  3.93                                                             
C 28.18 11.62 19.65                                                             
C 28.18 11.62 35.37                                                             
C 28.18 11.62 51.09                                                             
C 28.18 11.62 66.80                                                             
C 28.18 16.27  3.93                                                             
C 28.18 16.27 19.65                                                             
C 28.18 16.27 35.37                                                             
C 28.18 16.27 51.09                                                             
C 28.18 16.27 66.80                                                             
C  0.00  0.00 11.79                                                             
C  0.00  0.00 27.51                                                             
C  0.00  0.00 43.23                                                             
C  0.00  0.00 58.94                                                             
C  0.00  0.00 74.66                                                             
C  0.00  4.65 11.79                                                             
C  0.00  4.65 27.51                                                             
C  0.00  4.65 43.23                                                             
C  0.00  4.65 58.94                                                             
C  0.00  4.65 74.66                                                             
C  4.03  2.32 11.79                                                             
C  4.03  2.32 27.51                                                             
C  4.03  2.32 43.23                                                             
C  4.03  2.32 58.94                                                             
C  4.03  2.32 74.66                                                             
C  8.05  0.00 11.79                                                             
C  8.05  0.00 27.51                                                             
C  8.05  0.00 43.23                                                             
C  8.05  0.00 58.94                                                             
C  8.05  0.00 74.66                                                             
C  0.00  9.30 11.79                                                             
C  0.00  9.30 27.51                                                             
C  0.00  9.30 43.23                                                             
C  0.00  9.30 58.94                                                             
C  0.00  9.30 74.66                                                             
C  4.03  6.97 11.79                                                             
C  4.03  6.97 27.51                                                             
C  4.03  6.97 43.23                                                             
C  4.03  6.97 58.94                                                             
C  4.03  6.97 74.66                                                             
C  8.05  4.65 11.79                                                             
C  8.05  4.65 27.51                                                             
C  8.05  4.65 43.23                                                             
C  8.05  4.65 58.94                                                             
C  8.05  4.65 74.66                                                             
C 12.08  2.32 11.79                                                             
C 12.08  2.32 27.51                                                             
C 12.08  2.32 43.23                                                             
C 12.08  2.32 58.94                                                             
C 12.08  2.32 74.66                                                             
C 16.10  0.00 11.79                                                             
C 16.10  0.00 27.51                                                             
C 16.10  0.00 43.23                                                             
C 16.10  0.00 58.94                                                             
C 16.10  0.00 74.66                                                             
C  0.00 13.95 11.79                                                             
C  0.00 13.95 27.51                                                             
C  0.00 13.95 43.23                                                             
C  0.00 13.95 58.94                                                             
C  0.00 13.95 74.66                                                             
C  4.03 11.62 11.79                                                             
C  4.03 11.62 27.51                                                             
C  4.03 11.62 43.23                                                             
C  4.03 11.62 58.94                                                             
C  4.03 11.62 74.66                                                             
C  8.05  9.30 11.79                                                             
C  8.05  9.30 27.51                                                             
C  8.05  9.30 43.23                                                             
C  8.05  9.30 58.94                                                             
C  8.05  9.30 74.66                                                             
C 12.08  6.97 11.79                                                             
C 12.08  6.97 27.51                                                             
C 12.08  6.97 43.23                                                             
C 12.08  6.97 58.94                                                             
C 12.08  6.97 74.66                                                             
C 16.10  4.65 11.79                                                             
C 16.10  4.65 27.51                                                             
C 16.10  4.65 43.23                                                             
C 16.10  4.65 58.94                                                             
C 16.10  4.65 74.66                                                             
C 20.13  2.32 11.79                                                             
C 20.13  2.32 27.51                                                             
C 20.13  2.32 43.23                                                             
C 20.13  2.32 58.94                                                             
C 20.13  2.32 74.66                                                             
C 24.16  0.00 11.79                                                             
C 24.16  0.00 27.51                                                             
C 24.16  0.00 43.23                                                             
C 24.16  0.00 58.94                                                             
C 24.16  0.00 74.66                                                             
C  4.03 16.27 11.79                                                             
C  4.03 16.27 27.51                                                             
C  4.03 16.27 43.23                                                             
C  4.03 16.27 58.94                                                             
C  4.03 16.27 74.66                                                             
C  8.05 13.95 11.79                                                             
C  8.05 13.95 27.51                                                             
C  8.05 13.95 43.23                                                             
C  8.05 13.95 58.94                                                             
C  8.05 13.95 74.66                                                             
C 12.08 11.62 11.79                                                             
C 12.08 11.62 27.51                                                             
C 12.08 11.62 43.23                                                             
C 12.08 11.62 58.94                                                             
C 12.08 11.62 74.66                                                             
C 16.10  9.30 11.79                                                             
C 16.10  9.30 27.51                                                             
C 16.10  9.30 43.23                                                             
C 16.10  9.30 58.94                                                             
C 16.10  9.30 74.66                                                             
C 20.13  6.97 11.79                                                             
C 20.13  6.97 27.51                                                             
C 20.13  6.97 43.23                                                             
C 20.13  6.97 58.94                                                             
C 20.13  6.97 74.66                                                             
C 24.16  4.65 11.79                                                             
C 24.16  4.65 27.51                                                             
C 24.16  4.65 43.23                                                             
C 24.16  4.65 58.94                                                             
C 24.16  4.65 74.66                                                             
C 28.18  2.32 11.79                                                             
C 28.18  2.32 27.51                                                             
C 28.18  2.32 43.23                                                             
C 28.18  2.32 58.94                                                             
C 28.18  2.32 74.66                                                             
C 12.08 16.27 11.79                                                             
C 12.08 16.27 27.51                                                             
C 12.08 16.27 43.23                                                             
C 12.08 16.27 58.94                                                             
C 12.08 16.27 74.66                                                             
C 16.10 13.95 11.79                                                             
C 16.10 13.95 27.51                                                             
C 16.10 13.95 43.23                                                             
C 16.10 13.95 58.94                                                             
C 16.10 13.95 74.66                                                             
C 20.13 11.62 11.79                                                             
C 20.13 11.62 27.51                                                             
C 20.13 11.62 43.23                                                             
C 20.13 11.62 58.94                                                             
C 20.13 11.62 74.66                                                             
C 24.16  9.30 11.79                                                             
C 24.16  9.30 27.51                                                             
C 24.16  9.30 43.23                                                             
C 24.16  9.30 58.94                                                             
C 24.16  9.30 74.66                                                             
C 28.18  6.97 11.79                                                             
C 28.18  6.97 27.51                                                             
C 28.18  6.97 43.23                                                             
C 28.18  6.97 58.94                                                             
C 28.18  6.97 74.66                                                             
C 20.13 16.27 11.79                                                             
C 20.13 16.27 27.51                                                             
C 20.13 16.27 43.23                                                             
C 20.13 16.27 58.94                                                             
C 20.13 16.27 74.66                                                             
C 24.16 13.95 11.79                                                             
C 24.16 13.95 27.51                                                             
C 24.16 13.95 43.23                                                             
C 24.16 13.95 58.94                                                             
C 24.16 13.95 74.66                                                             
C 28.18 11.62 11.79                                                             
C 28.18 11.62 27.51                                                             
C 28.18 11.62 43.23                                                             
C 28.18 11.62 58.94                                                             
C 28.18 11.62 74.66                                                             
C 28.18 16.27 11.79                                                             
C 28.18 16.27 27.51                                                             
C 28.18 16.27 43.23                                                             
C 28.18 16.27 58.94                                                             
C 28.18 16.27 74.66                                                             
C  1.34  2.32  3.93                                                             
C  1.34  2.32 19.65                                                             
C  1.34  2.32 35.37                                                             
C  1.34  2.32 51.09                                                             
C  1.34  2.32 66.80                                                             
C  5.37  0.00  3.93                                                             
C  5.37  0.00 19.65                                                             
C  5.37  0.00 35.37                                                             
C  5.37  0.00 51.09                                                             
C  5.37  0.00 66.80                                                             
C  1.34  6.97  3.93                                                             
C  1.34  6.97 19.65                                                             
C  1.34  6.97 35.37                                                             
C  1.34  6.97 51.09                                                             
C  1.34  6.97 66.80                                                             
C  5.37  4.65  3.93                                                             
C  5.37  4.65 19.65                                                             
C  5.37  4.65 35.37                                                             
C  5.37  4.65 51.09                                                             
C  5.37  4.65 66.80                                                             
C  9.39  2.32  3.93                                                             
C  9.39  2.32 19.65                                                             
C  9.39  2.32 35.37                                                             
C  9.39  2.32 51.09                                                             
C  9.39  2.32 66.80                                                             
C 13.42  0.00  3.93                                                             
C 13.42  0.00 19.65                                                             
C 13.42  0.00 35.37                                                             
C 13.42  0.00 51.09                                                             
C 13.42  0.00 66.80                                                             
C  1.34 11.62  3.93                                                             
C  1.34 11.62 19.65                                                             
C  1.34 11.62 35.37                                                             
C  1.34 11.62 51.09                                                             
C  1.34 11.62 66.80                                                             
C  5.37  9.30  3.93                                                             
C  5.37  9.30 19.65                                                             
C  5.37  9.30 35.37                                                             
C  5.37  9.30 51.09                                                             
C  5.37  9.30 66.80                                                             
C  9.39  6.97  3.93                                                             
C  9.39  6.97 19.65                                                             
C  9.39  6.97 35.37                                                             
C  9.39  6.97 51.09                                                             
C  9.39  6.97 66.80                                                             
C 13.42  4.65  3.93                                                             
C 13.42  4.65 19.65                                                             
C 13.42  4.65 35.37                                                             
C 13.42  4.65 51.09                                                             
C 13.42  4.65 66.80                                                             
C 17.45  2.32  3.93                                                             
C 17.45  2.32 19.65                                                             
C 17.45  2.32 35.37                                                             
C 17.45  2.32 51.09                                                             
C 17.45  2.32 66.80                                                             
C 21.47  0.00  3.93                                                             
C 21.47  0.00 19.65                                                             
C 21.47  0.00 35.37                                                             
C 21.47  0.00 51.09                                                             
C 21.47  0.00 66.80                                                             
C  1.34 16.27  3.93                                                             
C  1.34 16.27 19.65                                                             
C  1.34 16.27 35.37                                                             
C  1.34 16.27 51.09                                                             
C  1.34 16.27 66.80                                                             
C  5.37 13.95  3.93                                                             
C  5.37 13.95 19.65                                                             
C  5.37 13.95 35.37                                                             
C  5.37 13.95 51.09                                                             
C  5.37 13.95 66.80                                                             
C  9.39 11.62  3.93                                                             
C  9.39 11.62 19.65                                                             
C  9.39 11.62 35.37                                                             
C  9.39 11.62 51.09                                                             
C  9.39 11.62 66.80                                                             
C 13.42  9.30  3.93                                                             
C 13.42  9.30 19.65                                                             
C 13.42  9.30 35.37                                                             
C 13.42  9.30 51.09                                                             
C 13.42  9.30 66.80                                                             
C 17.45  6.97  3.93                                                             
C 17.45  6.97 19.65                                                             
C 17.45  6.97 35.37                                                             
C 17.45  6.97 51.09                                                             
C 17.45  6.97 66.80                                                             
C 21.47  4.65  3.93                                                             
C 21.47  4.65 19.65                                                             
C 21.47  4.65 35.37                                                             
C 21.47  4.65 51.09                                                             
C 21.47  4.65 66.80                                                             
C 25.50  2.32  3.93                                                             
C 25.50  2.32 19.65                                                             
C 25.50  2.32 35.37                                                             
C 25.50  2.32 51.09                                                             
C 25.50  2.32 66.80                                                             
C 29.52  0.00  3.93                                                             
C 29.52  0.00 19.65                                                             
C 29.52  0.00 35.37                                                             
C 29.52  0.00 51.09                                                             
C 29.52  0.00 66.80                                                             
C  9.39 16.27  3.93                                                             
C  9.39 16.27 19.65                                                             
C  9.39 16.27 35.37                                                             
C  9.39 16.27 51.09                                                             
C  9.39 16.27 66.80                                                             
C 13.42 13.95  3.93                                                             
C 13.42 13.95 19.65                                                             
C 13.42 13.95 35.37                                                             
C 13.42 13.95 51.09                                                             
C 13.42 13.95 66.80                                                             
C 17.45 11.62  3.93                                                             
C 17.45 11.62 19.65                                                             
C 17.45 11.62 35.37                                                             
C 17.45 11.62 51.09                                                             
C 17.45 11.62 66.80                                                             
C 21.47  9.30  3.93                                                             
C 21.47  9.30 19.65                                                             
C 21.47  9.30 35.37                                                             
C 21.47  9.30 51.09                                                             
C 21.47  9.30 66.80                                                             
C 25.50  6.97  3.93                                                             
C 25.50  6.97 19.65                                                             
C 25.50  6.97 35.37                                                             
C 25.50  6.97 51.09                                                             
C 25.50  6.97 66.80                                                             
C 29.52  4.65  3.93                                                             
C 29.52  4.65 19.65                                                             
C 29.52  4.65 35.37                                                             
C 29.52  4.65 51.09                                                             
C 29.52  4.65 66.80                                                             
C 17.45 16.27  3.93                                                             
C 17.45 16.27 19.65                                                             
C 17.45 16.27 35.37                                                             
C 17.45 16.27 51.09                                                             
C 17.45 16.27 66.80                                                             
C 21.47 13.95  3.93                                                             
C 21.47 13.95 19.65                                                             
C 21.47 13.95 35.37                                                             
C 21.47 13.95 51.09                                                             
C 21.47 13.95 66.80                                                             
C 25.50 11.62  3.93                                                             
C 25.50 11.62 19.65                                                             
C 25.50 11.62 35.37                                                             
C 25.50 11.62 51.09                                                             
C 25.50 11.62 66.80                                                             
C 29.52  9.30  3.93                                                             
C 29.52  9.30 19.65                                                             
C 29.52  9.30 35.37                                                             
C 29.52  9.30 51.09                                                             
C 29.52  9.30 66.80                                                             
C 25.50 16.27  3.93                                                             
C 25.50 16.27 19.65                                                             
C 25.50 16.27 35.37                                                             
C 25.50 16.27 51.09                                                             
C 25.50 16.27 66.80                                                             
C 29.52 13.95  3.93                                                             
C 29.52 13.95 19.65                                                             
C 29.52 13.95 35.37                                                             
C 29.52 13.95 51.09                                                             
C 29.52 13.95 66.80                                                             
C  2.68  0.00 11.79                                                             
C  2.68  0.00 27.51                                                             
C  2.68  0.00 43.23                                                             
C  2.68  0.00 58.94                                                             
C  2.68  0.00 74.66                                                             
C  2.68  4.65 11.79                                                             
C  2.68  4.65 27.51                                                             
C  2.68  4.65 43.23                                                             
C  2.68  4.65 58.94                                                             
C  2.68  4.65 74.66                                                             
C  6.71  2.32 11.79                                                             
C  6.71  2.32 27.51                                                             
C  6.71  2.32 43.23                                                             
C  6.71  2.32 58.94                                                             
C  6.71  2.32 74.66                                                             
C 10.74  0.00 11.79                                                             
C 10.74  0.00 27.51                                                             
C 10.74  0.00 43.23                                                             
C 10.74  0.00 58.94                                                             
C 10.74  0.00 74.66                                                             
C  2.68  9.30 11.79                                                             
C  2.68  9.30 27.51                                                             
C  2.68  9.30 43.23                                                             
C  2.68  9.30 58.94                                                             
C  2.68  9.30 74.66                                                             
C  6.71  6.97 11.79                                                             
C  6.71  6.97 27.51                                                             
C  6.71  6.97 43.23                                                             
C  6.71  6.97 58.94                                                             
C  6.71  6.97 74.66                                                             
C 10.74  4.65 11.79                                                             
C 10.74  4.65 27.51                                                             
C 10.74  4.65 43.23                                                             
C 10.74  4.65 58.94                                                             
C 10.74  4.65 74.66                                                             
C 14.76  2.32 11.79                                                             
C 14.76  2.32 27.51                                                             
C 14.76  2.32 43.23                                                             
C 14.76  2.32 58.94                                                             
C 14.76  2.32 74.66                                                             
C 18.79  0.00 11.79                                                             
C 18.79  0.00 27.51                                                             
C 18.79  0.00 43.23                                                             
C 18.79  0.00 58.94                                                             
C 18.79  0.00 74.66                                                             
C  2.68 13.95 11.79                                                             
C  2.68 13.95 27.51                                                             
C  2.68 13.95 43.23                                                             
C  2.68 13.95 58.94                                                             
C  2.68 13.95 74.66                                                             
C  6.71 11.62 11.79                                                             
C  6.71 11.62 27.51                                                             
C  6.71 11.62 43.23                                                             
C  6.71 11.62 58.94                                                             
C  6.71 11.62 74.66                                                             
C 10.74  9.30 11.79                                                             
C 10.74  9.30 27.51                                                             
C 10.74  9.30 43.23                                                             
C 10.74  9.30 58.94                                                             
C 10.74  9.30 74.66                                                             
C 14.76  6.97 11.79                                                             
C 14.76  6.97 27.51                                                             
C 14.76  6.97 43.23                                                             
C 14.76  6.97 58.94                                                             
C 14.76  6.97 74.66                                                             
C 18.79  4.65 11.79                                                             
C 18.79  4.65 27.51                                                             
C 18.79  4.65 43.23                                                             
C 18.79  4.65 58.94                                                             
C 18.79  4.65 74.66                                                             
C 22.81  2.32 11.79                                                             
C 22.81  2.32 27.51                                                             
C 22.81  2.32 43.23                                                             
C 22.81  2.32 58.94                                                             
C 22.81  2.32 74.66                                                             
C 26.84  0.00 11.79                                                             
C 26.84  0.00 27.51                                                             
C 26.84  0.00 43.23                                                             
C 26.84  0.00 58.94                                                             
C 26.84  0.00 74.66                                                             
C  6.71 16.27 11.79                                                             
C  6.71 16.27 27.51                                                             
C  6.71 16.27 43.23                                                             
C  6.71 16.27 58.94                                                             
C  6.71 16.27 74.66                                                             
C 10.74 13.95 11.79                                                             
C 10.74 13.95 27.51                                                             
C 10.74 13.95 43.23                                                             
C 10.74 13.95 58.94                                                             
C 10.74 13.95 74.66                                                             
C 14.76 11.62 11.79                                                             
C 14.76 11.62 27.51                                                             
C 14.76 11.62 43.23                                                             
C 14.76 11.62 58.94                                                             
C 14.76 11.62 74.66                                                             
C 18.79  9.30 11.79                                                             
C 18.79  9.30 27.51                                                             
C 18.79  9.30 43.23                                                             
C 18.79  9.30 58.94                                                             
C 18.79  9.30 74.66                                                             
C 22.81  6.97 11.79                                                             
C 22.81  6.97 27.51                                                             
C 22.81  6.97 43.23                                                             
C 22.81  6.97 58.94                                                             
C 22.81  6.97 74.66                                                             
C 26.84  4.65 11.79                                                             
C 26.84  4.65 27.51                                                             
C 26.84  4.65 43.23                                                             
C 26.84  4.65 58.94                                                             
C 26.84  4.65 74.66                                                             
C 30.86  2.32 11.79                                                             
C 30.86  2.32 27.51                                                             
C 30.86  2.32 43.23                                                             
C 30.86  2.32 58.94                                                             
C 30.86  2.32 74.66                                                             
C 14.76 16.27 11.79                                                             
C 14.76 16.27 27.51                                                             
C 14.76 16.27 43.23                                                             
C 14.76 16.27 58.94                                                             
C 14.76 16.27 74.66                                                             
C 18.79 13.95 11.79                                                             
C 18.79 13.95 27.51                                                             
C 18.79 13.95 43.23                                                             
C 18.79 13.95 58.94                                                             
C 18.79 13.95 74.66                                                             
C 22.81 11.62 11.79                                                             
C 22.81 11.62 27.51                                                             
C 22.81 11.62 43.23                                                             
C 22.81 11.62 58.94                                                             
C 22.81 11.62 74.66                                                             
C 26.84  9.30 11.79                                                             
C 26.84  9.30 27.51                                                             
C 26.84  9.30 43.23                                                             
C 26.84  9.30 58.94                                                             
C 26.84  9.30 74.66                                                             
C 30.86  6.97 11.79                                                             
C 30.86  6.97 27.51                                                             
C 30.86  6.97 43.23                                                             
C 30.86  6.97 58.94                                                             
C 30.86  6.97 74.66                                                             
C 22.81 16.27 11.79                                                             
C 22.81 16.27 27.51                                                             
C 22.81 16.27 43.23                                                             
C 22.81 16.27 58.94                                                             
C 22.81 16.27 74.66                                                             
C 26.84 13.95 11.79                                                             
C 26.84 13.95 27.51                                                             
C 26.84 13.95 43.23                                                             
C 26.84 13.95 58.94                                                             
C 26.84 13.95 74.66                                                             
C 30.86 11.62 11.79                                                             
C 30.86 11.62 27.51                                                             
C 30.86 11.62 43.23                                                             
C 30.86 11.62 58.94                                                             
C 30.86 11.62 74.66                                                             
C 30.86 16.27 11.79                                                             
C 30.86 16.27 27.51                                                             
C 30.86 16.27 43.23                                                             
C 30.86 16.27 58.94                                                             
C 30.86 16.27 74.66                                                             
%ENDBLOCK POSITIONS_ABS                                                         

--------------------------------------------------------------------------------
-------------------------------- END INPUT FILE --------------------------------
--------------------------------------------------------------------------------


 
<<<<<<<<<<<<<<<<<<<<<<<<<<<<<<<<< Full system >>>>>>>>>>>>>>>>>>>>>>>>>>>>>>>>>>
<<<<<<<<<<<<<<<<<<<<<<<<<<< PAW Dataset information >>>>>>>>>>>>>>>>>>>>>>>>>>>
File: ~/pp/paw/c_pbe_abinit.paw; rc = 1.25 bohr; shape type =  3; rshape = 1.25 bohr;
  Atomic number:  6;  ionic charge:  4.000000
    Partial Wave 1: l = 0
    Partial Wave 2: l = 0
    Partial Wave 3: l = 1
    Partial Wave 4: l = 1
  Core charge supplied for Nonlinear Core Corrections
<<<<<<<<<<<<<<<<<<<<<<<<<<<<<<<<<<<<<<< >>>>>>>>>>>>>>>>>>>>>>>>>>>>>>>>>>>>>>>

-------------------------- Atom counting information ---------------------------
Symbol    Natoms    Nngwfs    Nprojs
  C        640      2560      5120
.......   ......    ......    ......
Totals:    640      2560      5120
--------------------------------------------------------------------------------

=============================== PSINC grid sizes ===============================
                      Simulation cell:   63 x  35 x 155
                              FFT-box:   63 x  35 x 117
                                  PPD:    7 x   5 x   1
Grid space d1=  0.511269841270a0 (KE cutoff=  29.06054Eh = 790.77748eV)
Grid space d2=  0.531142857143a0 (KE cutoff=  26.92659Eh = 732.70972eV)
Grid space d3=  0.507032258065a0 (KE cutoff=  29.54832Eh = 804.05075eV)
================================================================================
  
WARNING in cell_grid_distribute:
Average of less than one 23-slab per node, so workload cannot be
equally balanced between nodes.

********************* Fourier parallelisation information **********************
       Coarse grid (whole simulation cell) dimensions:     63    35   155
          Real-space ('12') slabs/node (min max mean):      3     4     3
         Recip-space ('23') slabs/node (min max mean):      0     1     0
********************************************************************************

********************* Fourier parallelisation information **********************
       Double grid (whole simulation cell) dimensions:    126    70   310
          Real-space ('12') slabs/node (min max mean):      7     8     7
         Recip-space ('23') slabs/node (min max mean):      1     2     1
********************************************************************************

Atom SCF Calculation for C  : Z (AE atom) =   6 : Z (PS atom) =   4
Config String: 2s2 2p2
Orbitals (num,occ):  2     2.00 2.00
Orbitals   (num,l):  2        0    1
Real-space Grid (nr,dr,rmax): 1293    0.0069659443    9.0000000000
Spherical Bessel Basis (nsws,lmax,cutoff):   37    2  161.4736382572
Confining potential (l,width,scale):  0    3.0000000000  100.0000000000
Confining potential (l,width,scale):  1    3.0000000000  100.0000000000
  1         -5.4129360987   -1.2444937266    4.5135257941   -1.5420271367
  2         -5.3444202281   -1.3377187790    4.4131101426   -1.5071921700
  3         -5.3525226456   -1.3566567794    4.3924752240   -1.5004938544
  4         -5.3561013121   -1.3623552809    4.3862114699   -1.4986199617
  5         -5.3580093800   -1.3653574582    4.3828991843   -1.4976654093
  6         -5.3590276761   -1.3669475005    4.3811409016   -1.4971696795
  7         -5.3595688314   -1.3677934914    4.3802040659   -1.4969088858
  8         -5.3598556216   -1.3682449178    4.3797036984   -1.4967706290
  9         -5.3600074081   -1.3684862338    4.3794360452   -1.4966970063
 10         -5.3600877081   -1.3686153812    4.3792927313   -1.4966576988
 11         -5.3601301919   -1.3686845537    4.3792159394   -1.4966366788
 12         -5.3601526758   -1.3687216261    4.3791747687   -1.4966254262
 13         -5.3601645804   -1.3687415049    4.3791526850   -1.4966193980
 14         -5.3601708871   -1.3687521691    4.3791408341   -1.4966161667
 15         -5.3601742301   -1.3687578926    4.3791344719   -1.4966144337
 16         -5.3601760032   -1.3687609656    4.3791310549   -1.4966135039
 17         -5.3601769442   -1.3687626162    4.3791292190   -1.4966130048
 18         -5.3601774440   -1.3687635032    4.3791282322   -1.4966127369
 19         -5.3601777096   -1.3687639799    4.3791277016   -1.4966125929
 20         -5.3601778508   -1.3687642363    4.3791274162   -1.4966125155
 21         -5.3601779259   -1.3687643743    4.3791272626   -1.4966124740
Atom SCF converged after  21 iterations to a total energy of     -5.36017793

Determining parallel strategy ...
... using space-filling curve
... NGWF load balancing: max     64;  min     64;  average     64
... Projector load balancing: max    128;  min    128;  average    128
... done
Calculating Ewald energy ...
              Ewald: real-space energy =    9527.449880
        Ewald: reciprocal-space energy =       1.255458
         Ewald: (sum_charge)**2 Energy =   10531.998999
         Ewald: (sum_charge**2) Energy =     832.627629
                          Ewald Energy =   -1835.921291
Basis initialisation ...... NGWF spheres initialised
... Projector spheres initialised
... NGWF tight boxes initialised
... Projector tight boxes initialised
... Tight-boxes gathered
... NGWF basis size (local,global):     692340  27886592
... PAW projector initialisation
... done

============================= Charge Augmentation ==============================
                           Aug box size:   11 x  11 x  11
================================================================================

========================== Sparse matrix information ===========================
                        Overlap matrix filling:  35.78%
                        Density kernel filling: 100.00%
              NGWF-Proj overlap matrix filling:   9.38%
                    Aug Overlap matrix filling:  39.69%
                    Hamiltonian matrix filling:  39.69%
                  NGWF diagonal matrix filling:   0.16%
                             KS matrix filling: 100.00% 
                           KSKS matrix filling: 100.00% 
================================================================================

Sparse matrix initialisation ... done
NGWF initialisation ...... done
============ Calculation of NGWF S^-1 using Hotelling algorithm ================ 
         Iteration  |  Frobenius norm and Maximum abs value    (of I-S*S_n^-1)   
               1       0.48836431E+02     0.97308241E+00
               2       0.47468254E+02     0.94808179E+00
               3       0.45474738E+02     0.90303628E+00
               4       0.42962783E+02     0.82852593E+00
               5       0.40001461E+02     0.72179677E+00
               6       0.36645132E+02     0.66842494E+00
               7       0.33265200E+02     0.62374600E+00
               8       0.30045600E+02     0.58603172E+00
               9       0.26477942E+02     0.54121508E+00
              10       0.21883376E+02     0.46856114E+00
              11       0.15919334E+02     0.35464865E+00
              12       0.92008777E+01     0.20887586E+00
              13       0.35480968E+01     0.78055771E-01
              14       0.63118082E+00     0.12664930E-01
              15       0.23694399E-01     0.41119564E-03
              16       0.43364147E-04     0.55932018E-06
              17       0.22204534E-09     0.17281732E-11
              18       0.70972633E-13     0.37747583E-14
================================================================================
Calculating core density ...
================================= Core Density =================================
               Core den box size:   21 x  21 x  21
================================================================================
 ... done
Up spin density kernel initialisation ...... done

Writing density kernel to file "4.158936_GO_manual_4x64graphite.dkn" ... done

>>> Optimising kernel for current NGWFs:

--------------------------- Ensemble-DFT optimisation --------------------------
Running ScaLAPACK on   40 processor(s).

--------------------------------------------------------------------------------
  Iter                              Commutator    Free_energy(A=E-TS)     DeltaA
#    0                          0.000024573851   -3614.57158729701769  -3.61E+03

Step                       =       0.381966011250
Energy                     =   -3614.571564087036
Entropy (-TS)              =      -0.000023210082
Free energy (A=E-TS)       =   -3614.571587297018
Est. 0K Energy 0.5*(E+A)   =   -3614.571575692027
Residual Non-orthogonality =       0.000000000000
Residual N_electrons       =       0.000000000100

Spin          Integrated_Ne            Fermi_level     Delta_Fermi_level
   1      2559.999999999166         0.119789091057              1.20E-01

                           Spin 1          
     Orb      H-eigenvalues     Occupancies
       1 |    -0.6044989419    1.0000000000 | 
                          ------
    1276 |     0.0829309582    0.9999911835 | 
    1277 |     0.0831869508    0.9999904412 | 
    1278 |     0.0835615457    0.9999892410 | 
    1279 |     0.0835644783    0.9999892310 | 
    1280 |     0.0838221162    0.9999883183 | 
                 - Gap at zero temperature -
    1281 |     0.1569135285    0.0000081054 | 
    1282 |     0.1569143363    0.0000081033 | 
    1283 |     0.1569158024    0.0000080996 | 
    1284 |     0.1569182080    0.0000080934 | 
    1285 |     0.1569226872    0.0000080820 | 
                          ------
    2560 |     0.9607281235    0.0000000000 | 

                       |  Abs_value |  Threshold | Converged
     Delta_Free_energy |   3.61E+03 |   1.00E-06 |        No
     Delta_Energy      |   3.61E+03 |   1.00E-04 |        No
     Delta_Entropy     |   2.32E-05 |   1.00E-04 |       Yes
     Commutator        |   2.46E-05 |   1.00E-05 |        No
     Delta_Fermi_level |   1.20E-01 |   1.00E-03 |        No

  Line search of the free energy minimum:
  Step_type        Step             Free_energy   Predicted_free_energy
.   Initial    0.000000    -3614.57158729701769
.    Trial1    0.381966    -3614.57233733900512
.    Trial2    0.618034    -3614.57239986037575
. Quadratic    0.548176    -3614.57241344201293    -3614.57241327428210

--------------------------------------------------------------------------------
  Iter                              Commutator    Free_energy(A=E-TS)     DeltaA
#    1                          0.000014447100   -3614.57241344201293  -8.26E-04

Step                       =       0.548176352487
Energy                     =   -3614.572388809926
Entropy (-TS)              =      -0.000024632114
Free energy (A=E-TS)       =   -3614.572413442013
Est. 0K Energy 0.5*(E+A)   =   -3614.572401125970
Residual Non-orthogonality =       0.000000000000
Residual N_electrons       =       0.000000000028

Spin          Integrated_Ne            Fermi_level     Delta_Fermi_level
   1      2559.999999999757         0.114795708844             -4.99E-03

                           Spin 1          
     Orb      H-eigenvalues     Occupancies
       1 |    -0.6100527811    1.0000000000 | 
                          ------
    1276 |     0.0781607623    0.9999905397 | 
    1277 |     0.0784003151    0.9999897964 | 
    1278 |     0.0786492292    0.9999889620 | 
    1279 |     0.0786502421    0.9999889585 | 
    1280 |     0.0788911673    0.9999880857 | 
                 - Gap at zero temperature -
    1281 |     0.1516474874    0.0000088342 | 
    1282 |     0.1516588731    0.0000088025 | 
    1283 |     0.1516599371    0.0000087995 | 
    1284 |     0.1516617563    0.0000087945 | 
    1285 |     0.1516636543    0.0000087892 | 
                          ------
    2560 |     0.9538266187    0.0000000000 | 

                       |  Abs_value |  Threshold | Converged
     Delta_Free_energy |   8.26E-04 |   1.00E-06 |        No
     Delta_Energy      |   8.25E-04 |   1.00E-04 |        No
     Delta_Entropy     |   1.42E-06 |   1.00E-04 |       Yes
     Commutator        |   1.44E-05 |   1.00E-05 |        No
     Delta_Fermi_level |   4.99E-03 |   1.00E-03 |        No

  Line search of the free energy minimum:
  Step_type        Step             Free_energy   Predicted_free_energy
.   Initial    0.000000    -3614.57241344201293
.    Trial1    0.548176    -3614.57241366573135
.    Trial2    0.720758    -3614.57205462131151
. Quadratic    0.274159    -3614.57262989241144    -3614.57263043964986

--------------------------------------------------------------------------------
  Iter                              Commutator    Free_energy(A=E-TS)     DeltaA
#    2                          0.000007671916   -3614.57262989241144  -2.16E-04

Step                       =       0.274158856970
Energy                     =   -3614.572604926664
Entropy (-TS)              =      -0.000024965838
Free energy (A=E-TS)       =   -3614.572629892411
Est. 0K Energy 0.5*(E+A)   =   -3614.572617409538
Residual Non-orthogonality =       0.000000000000
Residual N_electrons       =       0.000000000090

Spin          Integrated_Ne            Fermi_level     Delta_Fermi_level
   1      2559.999999999206         0.113664624679             -1.13E-03

                           Spin 1          
     Orb      H-eigenvalues     Occupancies
       1 |    -0.6113163553    1.0000000000 | 
                          ------
    1276 |     0.0770394114    0.9999905106 | 
    1277 |     0.0772748409    0.9999897783 | 
    1278 |     0.0775707247    0.9999887772 | 
    1279 |     0.0775719340    0.9999887729 | 
    1280 |     0.0778088099    0.9999879009 | 
                 - Gap at zero temperature -
    1281 |     0.1504904454    0.0000089069 | 
    1282 |     0.1505022022    0.0000088739 | 
    1283 |     0.1505034101    0.0000088705 | 
    1284 |     0.1505056244    0.0000088643 | 
    1285 |     0.1505074591    0.0000088592 | 
                          ------
    2560 |     0.9522524162    0.0000000000 | 

                       |  Abs_value |  Threshold | Converged
     Delta_Free_energy |   2.16E-04 |   1.00E-06 |        No
     Delta_Energy      |   2.16E-04 |   1.00E-04 |        No
     Delta_Entropy     |   3.34E-07 |   1.00E-04 |       Yes
     Commutator        |   7.67E-06 |   1.00E-05 |       Yes
     Delta_Fermi_level |   1.13E-03 |   1.00E-03 |        No

  Line search of the free energy minimum:
  Step_type        Step             Free_energy   Predicted_free_energy
.   Initial    0.000000    -3614.57262989241144
.    Trial1    0.274159    -3614.57269119716102
.    Trial2    0.551406    -3614.57269481230423
. Quadratic    0.429855    -3614.57270046583699    -3614.57270045441510

--------------------------------------------------------------------------------
  Iter                              Commutator    Free_energy(A=E-TS)     DeltaA
#    3                          0.000005190125   -3614.57270046583699  -7.06E-05

Step                       =       0.429854872299
Energy                     =   -3614.572675121260
Entropy (-TS)              =      -0.000025344747
Free energy (A=E-TS)       =   -3614.572700465837
Est. 0K Energy 0.5*(E+A)   =   -3614.572687793549
Residual Non-orthogonality =       0.000000000000
Residual N_electrons       =       0.000000000170

Spin          Integrated_Ne            Fermi_level     Delta_Fermi_level
   1      2559.999999998486         0.112373048928             -1.29E-03

                           Spin 1          
     Orb      H-eigenvalues     Occupancies
       1 |    -0.6127483611    1.0000000000 | 
                          ------
    1276 |     0.0757763057    0.9999904249 | 
    1277 |     0.0760070717    0.9999897011 | 
    1278 |     0.0763222765    0.9999886233 | 
    1279 |     0.0763236699    0.9999886183 | 
    1280 |     0.0765559060    0.9999877523 | 
                 - Gap at zero temperature -
    1281 |     0.1491545950    0.0000090323 | 
    1282 |     0.1491665461    0.0000089983 | 
    1283 |     0.1491680187    0.0000089941 | 
    1284 |     0.1491705765    0.0000089868 | 
    1285 |     0.1491726063    0.0000089811 | 
                          ------
    2560 |     0.9504736275    0.0000000000 | 

                       |  Abs_value |  Threshold | Converged
     Delta_Free_energy |   7.06E-05 |   1.00E-06 |        No
     Delta_Energy      |   7.02E-05 |   1.00E-04 |       Yes
     Delta_Entropy     |   3.79E-07 |   1.00E-04 |       Yes
     Commutator        |   5.19E-06 |   1.00E-05 |       Yes
     Delta_Fermi_level |   1.29E-03 |   1.00E-03 |        No

  Line search of the free energy minimum:
  Step_type        Step             Free_energy   Predicted_free_energy
.   Initial    0.000000    -3614.57270046583699
.    Trial1    0.429855    -3614.57272007830170
.    Trial2    0.647631    -3614.57267945825197
. Quadratic    0.278569    -3614.57272826883764    -3614.57272828242048

--------------------------------------------------------------------------------
  Iter                              Commutator    Free_energy(A=E-TS)     DeltaA
#    4                          0.000003077130   -3614.57272826883764  -2.78E-05

Step                       =       0.278569340939
Energy                     =   -3614.572702783456
Entropy (-TS)              =      -0.000025485366
Free energy (A=E-TS)       =   -3614.572728268838
[...]
 C   160 -- C   385       -0.10      5.37000
 C   159 -- C   384       -0.10      5.37000
 C   158 -- C   383       -0.10      5.37000
 C   157 -- C   382       -0.10      5.37000
 C   156 -- C   381       -0.10      5.37000
 C   155 -- C   355       -0.10      5.37000
 C   154 -- C   354       -0.10      5.37000
 C   153 -- C   353       -0.10      5.37000
 C   152 -- C   352       -0.10      5.37000
 C   151 -- C   351       -0.10      5.37000
 C   140 -- C   335       -0.10      5.37000
 C   139 -- C   334       -0.10      5.37000
 C   138 -- C   333       -0.10      5.37000
 C   137 -- C   332       -0.10      5.37000
 C   136 -- C   331       -0.10      5.37000
 C   115 -- C   325       -0.10      5.37000
 C   114 -- C   324       -0.10      5.37000
 C   113 -- C   323       -0.10      5.37000
 C   112 -- C   322       -0.10      5.37000
 C   111 -- C   321       -0.10      5.37000
 C   219 -- C   569       -0.10      5.37202
 C   218 -- C   568       -0.10      5.37202
 C   217 -- C   567       -0.10      5.37202
 C   216 -- C   566       -0.10      5.37202
 C   250 -- C   540       -0.10      5.37202
 C   249 -- C   539       -0.10      5.37202
 C   248 -- C   538       -0.10      5.37202
 C   247 -- C   537       -0.10      5.37202
 C   246 -- C   536       -0.10      5.37202
 C   220 -- C   570       -0.10      5.37202
 C   285 -- C   580       -0.10      5.37202
 C   284 -- C   579       -0.10      5.37202
 C   283 -- C   578       -0.10      5.37202
 C   282 -- C   577       -0.10      5.37202
 C   281 -- C   576       -0.10      5.37202
 C   260 -- C   605       -0.10      5.37202
 C   259 -- C   604       -0.10      5.37202
 C   258 -- C   603       -0.10      5.37202
 C   257 -- C   602       -0.10      5.37202
 C   256 -- C   601       -0.10      5.37202
 C   220 -- C   515       -0.10      5.37202
 C   219 -- C   514       -0.10      5.37202
 C   218 -- C   513       -0.10      5.37202
 C   217 -- C   512       -0.10      5.37202
 C   216 -- C   511       -0.10      5.37202
 C   195 -- C   540       -0.10      5.37202
 C   195 -- C   500       -0.10      5.37202
 C   194 -- C   539       -0.10      5.37202
 C   194 -- C   499       -0.10      5.37202
 C   193 -- C   538       -0.10      5.37202
 C   193 -- C   498       -0.10      5.37202
 C   192 -- C   537       -0.10      5.37202
 C   192 -- C   497       -0.10      5.37202
 C   191 -- C   536       -0.10      5.37202
 C   191 -- C   496       -0.10      5.37202
 C   180 -- C   515       -0.10      5.37202
 C   179 -- C   514       -0.10      5.37202
 C   178 -- C   513       -0.10      5.37202
 C   177 -- C   512       -0.10      5.37202
 C   176 -- C   511       -0.10      5.37202
 C    11 -- C   331       -0.10      5.37202
 C   205 -- C   550       -0.10      5.37202
 C   204 -- C   549       -0.10      5.37202
 C   203 -- C   548       -0.10      5.37202
 C   202 -- C   547       -0.10      5.37202
 C   201 -- C   546       -0.10      5.37202
 C    95 -- C   425       -0.10      5.37202
 C    95 -- C   365       -0.10      5.37202
 C    94 -- C   424       -0.10      5.37202
 C    94 -- C   364       -0.10      5.37202
 C    93 -- C   423       -0.10      5.37202
 C    93 -- C   363       -0.10      5.37202
 C    92 -- C   422       -0.10      5.37202
 C    92 -- C   362       -0.10      5.37202
 C    91 -- C   421       -0.10      5.37202
 C    91 -- C   361       -0.10      5.37202
 C    40 -- C   365       -0.10      5.37202
 C    39 -- C   364       -0.10      5.37202
 C    38 -- C   363       -0.10      5.37202
 C    37 -- C   362       -0.10      5.37202
 C    36 -- C   361       -0.10      5.37202
 C    15 -- C   335       -0.10      5.37202
 C    65 -- C   395       -0.10      5.37202
 C    65 -- C   345       -0.10      5.37202
 C    64 -- C   394       -0.10      5.37202
 C    64 -- C   344       -0.10      5.37202
 C    63 -- C   393       -0.10      5.37202
 C    30 -- C   355       -0.10      5.37202
 C    63 -- C   343       -0.10      5.37202
 C    62 -- C   392       -0.10      5.37202
 C    30 -- C   325       -0.10      5.37202
 C    14 -- C   334       -0.10      5.37202
 C    62 -- C   342       -0.10      5.37202
 C    61 -- C   391       -0.10      5.37202
 C    29 -- C   354       -0.10      5.37202
 C    61 -- C   341       -0.10      5.37202
 C    29 -- C   324       -0.10      5.37202
 C   260 -- C   550       -0.10      5.37202
 C   259 -- C   549       -0.10      5.37202
 C    28 -- C   353       -0.10      5.37202
 C   258 -- C   548       -0.10      5.37202
 C   257 -- C   547       -0.10      5.37202
 C   256 -- C   546       -0.10      5.37202
 C    28 -- C   323       -0.10      5.37202
 C    27 -- C   352       -0.10      5.37202
 C    13 -- C   333       -0.10      5.37202
 C    27 -- C   322       -0.10      5.37202
 C   120 -- C   395       -0.10      5.37202
 C    26 -- C   351       -0.10      5.37202
 C   119 -- C   394       -0.10      5.37202
 C   118 -- C   393       -0.10      5.37202
 C    55 -- C   335       -0.10      5.37202
 C   117 -- C   392       -0.10      5.37202
 C    26 -- C   321       -0.10      5.37202
 C   116 -- C   391       -0.10      5.37202
 C    54 -- C   334       -0.10      5.37202
 C    12 -- C   332       -0.10      5.37202
 C    53 -- C   333       -0.10      5.37202
 C   230 -- C   580       -0.10      5.37202
 C   230 -- C   525       -0.10      5.37202
 C   229 -- C   579       -0.10      5.37202
 C   229 -- C   524       -0.10      5.37202
 C   228 -- C   578       -0.10      5.37202
 C    52 -- C   332       -0.10      5.37202
 C   228 -- C   523       -0.10      5.37202
 C   227 -- C   577       -0.10      5.37202
 C   227 -- C   522       -0.10      5.37202
 C   226 -- C   576       -0.10      5.37202
 C   226 -- C   521       -0.10      5.37202
 C    51 -- C   331       -0.10      5.37202
 C    23 -- C   478       -0.10      5.37202
 C    49 -- C   469       -0.10      5.37202
 C    48 -- C   468       -0.10      5.37202
 C    47 -- C   467       -0.10      5.37202
 C    22 -- C   477       -0.10      5.37202
 C    46 -- C   466       -0.10      5.37202
 C    21 -- C   476       -0.10      5.37202
 C    85 -- C   355       -0.10      5.37202
 C    84 -- C   354       -0.10      5.37202
 C    83 -- C   353       -0.10      5.37202
 C    82 -- C   352       -0.10      5.37202
 C    81 -- C   351       -0.10      5.37202
 C    55 -- C   385       -0.10      5.37202
 C    54 -- C   384       -0.10      5.37202
 C    25 -- C   480       -0.10      5.37202
 C    53 -- C   383       -0.10      5.37202
 C    52 -- C   382       -0.10      5.37202
 C    51 -- C   381       -0.10      5.37202
 C    24 -- C   479       -0.10      5.37202
 C    50 -- C   470       -0.10      5.37202
 C    24 -- C   449       -0.10      5.37202
 C     6 -- C   416       -0.10      5.37202
 C    23 -- C   448       -0.10      5.37202
 C    22 -- C   447       -0.10      5.37202
 C    10 -- C   470       -0.10      5.37202
 C     5 -- C   450       -0.10      5.37202
 C    21 -- C   446       -0.10      5.37202
 C    10 -- C   420       -0.10      5.37202
 C     9 -- C   469       -0.10      5.37202
 C     9 -- C   419       -0.10      5.37202
 C     8 -- C   468       -0.10      5.37202
 C     4 -- C   449       -0.10      5.37202
 C   150 -- C   440       -0.10      5.37202
 C   149 -- C   439       -0.10      5.37202
 C   148 -- C   438       -0.10      5.37202
 C   147 -- C   437       -0.10      5.37202
 C     8 -- C   418       -0.10      5.37202
 C   146 -- C   436       -0.10      5.37202
 C     2 -- C   447       -0.10      5.37202
 C   135 -- C   460       -0.10      5.37202
 C     7 -- C   467       -0.10      5.37202
 C   134 -- C   459       -0.10      5.37202
 C   133 -- C   458       -0.10      5.37202
 C   132 -- C   457       -0.10      5.37202
 C   131 -- C   456       -0.10      5.37202
 C     7 -- C   417       -0.10      5.37202
 C     1 -- C   446       -0.10      5.37202
 C     6 -- C   466       -0.10      5.37202
 C    25 -- C   450       -0.10      5.37202
 C     3 -- C   448       -0.10      5.37202
 C   106 -- C   436       -0.10      5.37202
 C   106 -- C   376       -0.10      5.37202
 C    80 -- C   410       -0.10      5.37202
 C    79 -- C   409       -0.10      5.37202
 C    78 -- C   408       -0.10      5.37202
 C    77 -- C   407       -0.10      5.37202
 C    76 -- C   406       -0.10      5.37202
 C   135 -- C   410       -0.10      5.37202
 C   134 -- C   409       -0.10      5.37202
 C   133 -- C   408       -0.10      5.37202
 C   132 -- C   407       -0.10      5.37202
 C   131 -- C   406       -0.10      5.37202
 C   110 -- C   440       -0.10      5.37202
 C   110 -- C   380       -0.10      5.37202
 C   109 -- C   439       -0.10      5.37202
 C   109 -- C   379       -0.10      5.37202
 C   108 -- C   438       -0.10      5.37202
 C   108 -- C   378       -0.10      5.37202
 C   107 -- C   437       -0.10      5.37202
 C   107 -- C   377       -0.10      5.37202
 C   215 -- C   635       -0.10      5.38000
 C   214 -- C   634       -0.10      5.38000
 C   213 -- C   633       -0.10      5.38000
 C   212 -- C   632       -0.10      5.38000
 C   211 -- C   631       -0.10      5.38000
 C   190 -- C   620       -0.10      5.38000
 C   189 -- C   619       -0.10      5.38000
 C   188 -- C   618       -0.10      5.38000
 C   187 -- C   617       -0.10      5.38000
 C   186 -- C   616       -0.10      5.38000
 C   175 -- C   595       -0.10      5.38000
 C   174 -- C   594       -0.10      5.38000
 C   173 -- C   593       -0.10      5.38000
 C   172 -- C   592       -0.10      5.38000
 C   171 -- C   591       -0.10      5.38000
 C   245 -- C   640       -0.10      5.38000
 C   244 -- C   639       -0.10      5.38000
 C   243 -- C   638       -0.10      5.38000
 C   242 -- C   637       -0.10      5.38000
 C   241 -- C   636       -0.10      5.38000
==================================================


=================== Orbital energy and occupancy information ===================

      Total number of orbitals:    2560
        Occupancy sum (kernel):    1280.000000001
   Occupancy sum (eigenvalues):    1280.000000001
                 HOMO-LUMO gap:       0.000009061 Eh
                 Mid-gap level:       0.213352937 Eh

                        Orbital | Energy (Eh) | Occupancy
                            1    -0.537887007   1.0000000
                        .......   ...........   .........
                         1272     0.141321240   0.9999892
                         1273     0.141789892   0.9999875
                         1274     0.141794119   0.9999875
                         1275     0.142727795   0.9999832
                         1276     0.142732800   0.9999832
                         1277     0.143202106   0.9999805
                         1278     0.143207110   0.9999804
                         1279     0.143245574   0.9999802
                         1280     0.143720102   0.9999770
                         1281     0.213348407   0.0000121
                        ....... -- gap at 0K -- .........
                         1282     0.213357468   0.0000121
                         1283     0.213492993   0.0000116
                         1284     0.213494934   0.0000116
                         1285     0.213579546   0.0000113
                         1286     0.213588862   0.0000112
                         1287     0.213597951   0.0000112
                         1288     0.213736526   0.0000107
                         1289     0.213738479   0.0000107
                         1290     0.213811844   0.0000105
                         1291     0.213819598   0.0000105
                        .......   ...........   .........
                         2560     1.081547104   0.0000000

================================================================================

===================== Writing canonical molecular orbitals =====================
| Orbital  Energy (eV)  Norm     |
| HOMO      5.80550555  1.000000 | Writing "4.158936_GO_manual_4x64graphite_HOMO.cube" ... done
Writing "4.158936_GO_manual_4x64graphite_HOMO.dx" ... done
| LUMO      5.80575211  1.000000 | Writing "4.158936_GO_manual_4x64graphite_LUMO.cube" ... done
Writing "4.158936_GO_manual_4x64graphite_LUMO.dx" ... done
================================================================================
 
===================== Density of States (DOS) calculation ======================
Writing "4.158936_GO_manual_4x64graphite_DOS.txt" ...  done
================================================================================
 
Writing bands to file "4.158936_GO_manual_4x64graphite.val_bands" ... done
 
================ Projected Density of States (pDOS) calculation ================
 
Constructing AM resolved functions  ...... done
Writing NGWF plot files in formats: CUBE DX ...  done
 
Performing overlap integrals ...  done
 
Computing pDOS weights ...  done
 
All bands spilling parameter =   2.81 %
Occupancy-weighted spilling parameter =   0.98 %
 
 => Outputting data for OptaDOS <=
 
Writing pDOS weights to file "4.158936_GO_manual_4x64graphite.val_pdos_bin" ... done
 
Writing band gradients to file "4.158936_GO_manual_4x64graphite.val_dome_bin" ... done
 
Writing Castep output cell file to "4.158936_GO_manual_4x64graphite-out.cell" ... done
 
 => Computing Gaussian smeared pDOS <= 
Writing "4.158936_GO_manual_4x64graphite_PDOS.txt" ...  done
 
 => Computing Occupancy-weighted Gaussian smeared pDOS <= 
Writing "4.158936_GO_manual_4x64graphite_occ_PDOS.txt" ...  done
  => Band centres: 
 S band centre of group 1:  -15.521511 eV
 P band centre of group 1:   -8.443786 eV
  Band centres done. <=
  => Integrated number of electrons in each AM band: 
 S num electrons of group 1:  571.401458
 P num electrons of group 1: 1963.631404
  Integrated number of electrons done. <=
================================================================================

------------------------------ TIMING INFORMATION ------------------------------
AVERAGE TIME:    2743.666s on     40 node(s)                                    
TOTAL TIME:      2743.667s on     40 node(s)                                    
================= AVERAGE TIMINGS FROM ALL NODES (CUMULATIVE) ==================
|| TAG                                    #calls    cpu time   %total  Gflops ||
|| work_imbalance                       :     1        0.00s   0.000%  ------ ||
|| paw_tcore_hartree_on_grid            :     1        0.01s   0.000%  ------ ||
|| paw_tcore_density                    :     1        0.01s   0.000%  ------ ||
|| paw_sphere_density_on_grid           :     1        0.01s   0.001%  ------ ||
|| sparse_set_to_garbage                :   135        0.02s   0.001%  ------ ||
|| paw_dij_hartree                      :   265        0.03s   0.001%  ------ ||
|| pseudo_make_structure_factor         :     1        0.06s   0.002%  ------ ||
|| basis_extract_function_from_box      :  1536        0.07s   0.002%  ------ ||
|| paw_species_calc_proj_prec_mat       :     1        0.12s   0.004%  ------ ||
|| paw_dataset_init                     :     1        0.15s   0.006%  ------ ||
|| density_init_guess_real              :     1        0.19s   0.007%  ------ ||
|| ngwfs_initialise_from_radial         :     2        0.66s   0.024%  ------ ||
|| restart_kernel_write                 :    13        0.72s   0.026%  ------ ||
|| sparse_init                          :     1        0.90s   0.033%  ------ ||
|| dense_normal_eigensolve              :     1        1.09s   0.040%  ------ ||
|| hartree_on_grid                      :   200        1.40s   0.051%  ------ ||
|| projectors_init_fftbox_recip         :   121        2.40s   0.088%  ------ ||
|| fourier_apply_box_pair               :  2272        3.77s   0.137% 558.912 ||
|| ewald_calculate_energy               :     1        3.99s   0.145%  ------ ||
|| basis_copy_function_to_box           : 19072        4.09s   0.149%  ------ ||
|| augmentation_screen_dij              :   205        4.51s   0.164%  ------ ||
|| sparse_embed_hotelling_invert_embed  :    23        6.69s   0.244%  ------ ||
|| sw_init                              :     1        6.73s   0.245%  ------ ||
|| ngwf_gradient_coeffs                 :    12        8.59s   0.313%  ------ ||
|| sparse_trace                         :  2394       10.36s   0.378%  ------ ||
|| cell_grid_extract_box_real           :  8028       16.11s   0.587%  ------ ||
|| fourier_apply_cell_backward          :  6171       16.37s   0.596%  55.703 ||
|| cell_grid_deposit_box_real           : 25776       17.21s   0.627%  ------ ||
|| fourier_apply_cell_forward           :  5772       17.68s   0.645%  48.214 ||
|| paw_dij_xc                           :   265       21.33s   0.777%  ------ ||
|| aug_nonlocal_mat                     :   253       28.42s   1.036%  ------ ||
|| density_fftbox_deposit_to_cell       : 12800       34.64s   1.263%  ------ ||
|| augmentation_density_on_grid         :   200       37.06s   1.351%  ------ ||
|| function_ops_brappd_ketppd           :    48       40.79s   1.487%  ------ ||
|| projectors_func_ovlp_box             :    24       42.64s   1.554%  ------ ||
|| hamiltonian_energy_components        :     3       43.95s   1.602%  ------ ||
|| eigenstates_pdos                     :     1       53.76s   1.960%  ------ ||
|| eigenstates_calculate                :     1       58.34s   2.126%  ------ ||
|| integrals_kinetic                    :    23       67.78s   2.470%  ------ ||
|| xc_energy_potential                  :   199       70.15s   2.557%  ------ ||
|| nlxc_vdw_energy                      :   398       76.36s   2.783%  ------ ||
|| dense_eigensolve                     :   173       87.76s   3.198%  ------ ||
|| potential_apply_to_ngwf_batch        :   248       97.23s   3.544%  ------ ||
|| sparse_product                       :  2454      101.50s   3.699%  ------ ||
|| properties_calculate                 :     1      108.31s   3.948%  ------ ||
|| restart_ngwfs_tightbox_output        :    11      125.17s   4.562%  ------ ||
|| basis_dot_function_with_box          : 5.047M     138.17s   5.036%  ------ ||
|| projectors_gradient_batch            :    48      165.85s   6.045%  ------ ||
|| integrals_locpot_mat_els_batch       :   248      183.81s   6.699%  ------ ||
|| fourier_apply_box                    : 60352      187.18s   6.822% 975.575 ||
|| edft_diag_ngwf_ham                   :   172      193.66s   7.058%  ------ ||
|| projectors_grad_precond_batch        :    48      241.82s   8.814%  ------ ||
|| density_fftbox_interpolate_multiply  : 12800      248.07s   9.042%  ------ ||
|| integrals_locpot_dbl_grid            :    62      282.07s  10.281%  ------ ||
|| density_batch_interp_deposit         :   800      313.70s  11.434%  ------ ||
|| edft_apply_smearing_operator         :   172      374.77s  13.660%  ------ ||
|| basis_add_function_to_box            : 14.54M     384.60s  14.018%  ------ ||
|| ngwf_gradient_build_batch            :    48      444.32s  16.194%  ------ ||
|| density_batch_row_sums               :   800      530.07s  19.320%  ------ ||
|| ngwf_gradient_batch                  :    48      599.76s  21.860%  ------ ||
|| ngwf_gradient_lnv                    :    12      623.07s  22.709%  ------ ||
|| density_on_dbl_grid                  :   200      854.65s  31.150%  ------ ||
|| hamiltonian_lhxc_calculate           :   195      945.77s  34.471%  ------ ||
|| edft_calculate                       :    12     1589.71s  57.941%  ------ ||
|| ngwf_cg_optimise                     :     1     2615.59s  95.332%  ------ ||
|| total_time                           :     1     2743.67s 100.000%  ------ ||
================================================================================
Overhead of generating timer report: 
- 0 ms averaging over threads,
- 6 ms ensuring consistency across MPI ranks,
- 0 ms printing in order.

Job completed: 05-03-2020 10:13 (-0000)

