 +---------------------------------------------------------------+
 |                                                               |
 |        ####### #     # ####### ####### ####### ######         |
 |        #     # ##    # #          #    #       #     #        |
 |        #     # # #   # #          #    #       #     #        |
 |        #     # #  #  # #####      #    #####   ######         |
 |        #     # #   # # #          #    #       #              |
 |        #     # #    ## #          #    #       #              |
 |        ####### #     # #######    #    ####### #              |
 |                                                               |
 |        Linear-Scaling Ab Initio Total Energy Program          |
 |                                                               |
 |          Release for academic collaborators of ODG            |
 |                                             Version 5.3.2.12  |
 |                                                               |
 +---------------------------------------------------------------+
 |                                                               |
 |  Authors:                                                     |
 |  Jacek Dziedzic, Peter D. Haynes, Nicholas D. M. Hine,        |
 |  Arash. A. Mostofi, Mike C. Payne and Chris-Kriton Skylaris   |
 |                                                               |
 |  Contributors:                                                |
 |  J. Aarons, L. Andrinopoulos, P. W. Avraam, R. A. Bell,       |
 |  A. Bhandari, G. A. Bramley, R. J. Charlton, S. J. Clark,     |
 |  R. J. Clements, G. C. Constantinescu, F. Corsetti,           |
 |  N. Corsini, O. Dieguez, S. M. M. Dubois, K. K. B. Duff,      |
 |  J. M. Escartin, A. Greco, H. Helal, Q. O. Hill, L. P. Lee,   |
 |  J.-H. Li, E. B. Linscott, G. Moynihan, D. D. O`Regan,        |
 |  O. K. Okan, M. J. S. Phipps, C. J. Pickard,                  |
 |  J. C. A. Prentice, M. I. J. Probert, L. E. Ratcliff,         |
 |  M. Robinson, A. Ruiz Serrano, J. S. Spencer, E. W. Tait,     |
 |  G. Teobaldi, D. Turban, V. Vitale, K. A. Wilkinson,          |
 |  C. Weber, J. C. Womack, N. Yeung and T. J. Zuehlsdorff       |
 |                                                               |
 |                                   Copyright (c) 2004-2020     |
 |                                                               |
 |  Please cite:                                                 |
 |  "Introducing ONETEP: Linear-scaling density functional       |
 |   simulations on parallel computers".                         |
 |   C.-K. Skylaris, P. D. Haynes, A. A. Mostofi, M. C. Payne.   |
 |   J. Chem. Phys. 122 084119 (2005).                           |
 |                                                               |
 |          in all publications arising from your use of ONETEP. |
 |                                                               |
 +---------------------------------------------------------------+
 |                                                               |
 |   ONETEP is based on developments described in the following  |
 |   publications:                                               |
 |                                                               |
 |  "Nonorthogonal generalized Wannier function pseudopotential  |
 |   plane-wave method".                                         |
 |   C.-K. Skylaris, A. A. Mostofi, P. D. Haynes, O. Dieguez,    |
 |   M. C. Payne.                                                |
 |   Phys. Rev. B 66 035119 (2002).                              |
 |                                                               |
 |  "Preconditioned iterative minimization for linear-scaling    |
 |   electronic structure calculations".                         |
 |   A. A. Mostofi, P. D. Haynes, C.-K. Skylaris, M. C. Payne.   |
 |   J. Chem. Phys. 119(17), pp.8842-8848 (2003).                |
 |                                                               |
 |  "Total-energy calculations on a real space grid with         |
 |   localized functions and a plane-wave basis".                |
 |   A. A. Mostofi, C.-K. Skylaris, P. D. Haynes, M. C. Payne.   |
 |   Comput. Phys. Commun. 147, pp.788-802 (2002).               |
 |                                                               |
 |  "Accurate kinetic energy evaluation in electronic structure  |
 |   calculations with localized functions on real space grids"  |
 |   C.-K. Skylaris, A. A. Mostofi, P. D. Haynes, C. J. Pickard, |
 |   M. C. Payne.                                                |
 |   Comput. Phys. Commun. 140, pp.315-322 (2001).               |
 |                                                               |
 |  "Accurate ionic forces and geometry optimization in linear-  |
 |   scaling density-functional theory with local orbitals"      |
 |   N. D. M. Hine, M. Robinson, P. D. Haynes, C.-K. Skylaris,   |
 |   M. C. Payne, and A. A. Mostofi.                             |
 |   Phys. Rev. B 83 195102 (2011).                              |
 |                                                               |
 +---------------------------------------------------------------+

Job started: 04-10-2020 21:25 (+0100)
 
Reading parameters from file "38/592nano.dat" ...... done

If your calculation crashes here, before "Checking processes and threads..."
is displayed, then your stack size is insufficient.
If so, use "ulimit -s unlimited" at runtime.
You can disable this check with "check_stack_size F".

Checking processes and threads...
   Determining the default number of threads...
      No default threads set at compilation time: defaulting to 1.
      OpenMP library call suggests 4 threads.
      Hybrid MPI-OpenMP compilation detected.
      Number of MPI processes > 1.
      OMP_NUM_THREADS environment variable present and
      its value matches the one obtained from the OpenMP library call.
      Using this value as default.
      Default threads: 4
      Default applies to threads_max and threads_num_fftboxes.
      Settings in the input file override this default.
   ... done

   Running with 160 MPI processes.
   There are 10 MPI processes running on the same node as the root process.
   Each MPI process is using: 
               1 threads for simulation cell FFTs.
               1 threads for parallel FFT box operations.
               4 threads for loops over batched FFT box operations.
               4 threads in other parallel regions.
... done

Basic input checks...
Resetting ngwf_cg_rotate to TRUE for EDFT calculations
... done

Reading geometry and species blocks from file "38/592nano.dat" ...    
  Number of PPD points along a3 set to 1.  This is 
  the default value, it may have been provided also in the input file.
... done
 Writing xyz coordinates to file "38/592nano.xyz" ... done


--------------------------------------------------------------------------------
---------------------------------- INPUT FILE ----------------------------------
--------------------------------------------------------------------------------

task : singlepoint                                                              
do_properties : true                                                            
ddec_classical_hirshfeld T                                                      
dx_format T                                                                     
edft T                                                                          
edft_spin_fix 3                                                                 
output_detail VERBOSE                                                           
write_xyz T                                                                     
dispersion 4                                                                    
xc_functional PBE                                                               
cutoff_energy 830 eV                                                            
paw T                                                                           
geom_disp_tol 0.015 bohr                                                        
geom_energy_tol 1.5E-6 hartree                                                  
geom_force_tol 0.003 "ha/bohr"                                                  
EDFT_MAXIT 30                                                                   
pdos_max_l = 2                                                                  
dos_smear  0.1 eV                                                               
popn_calculate T                                                                
PDOS_PSEUDOATOMIC T                                                             
PDOS_REDUCE_SWS F                                                               
PDOS_CONSTRUCT_BASIS F                                                          
PDOS_LOWDIN T                                                                   
PDOS_ORTH_ATOM_BLOCKS F                                                         
PDOS_LCAO_OPTIMIZE F                                                            
pdos_optados_output T                                                           
homo_plot 0                                                                     
lumo_plot 0                                                                     
homo_dens_plot -1                                                               
lumo_dens_plot -1                                                               
%BLOCK SPECIES                                                                  
C C 6 4 9.0                                                                     
H H 1 1 9.0                                                                     
Li Li 3 5 9.0                                                                   
%ENDBLOCK SPECIES                                                               
%BLOCK SPECIES_POT                                                              
C "~/pp/paw/c_pbe_abinit.paw"                                                   
H "~/pp/paw/h_pbe_abinit.paw"                                                   
Li "~/pp/paw/li_pbe_abinit.paw"                                                 
%ENDBLOCK SPECIES_POT                                                           
%BLOCK SPECIES_ATOMIC_SET                                                       
C "SOLVE conf=2s2 2p2"                                                          
H "SOLVE conf=1s1"                                                              
Li "SOLVE conf=1s2 2s1 2p0"                                                     
%ENDBLOCK SPECIES_ATOMIC_SET                                                    
%BLOCK SPECIES_LDOS_GROUPS                                                      
C                                                                               
H                                                                               
Li                                                                              
%ENDBLOCK SPECIES_LDOS_GROUPS                                                   
%BLOCK LATTICE_CART                                                             
94.486315650000      0.000000000000       0.000000000000                        
0.000000000000       94.486315650000      0.000000000000                        
0.000000000000       0.000000000000       94.486315650000                       
%ENDBLOCK LATTICE_CART                                                          
%BLOCK POSITIONS_ABS                                                            
C 45.507707 50.681531 30.645602                                                 
C 45.446484 50.586282 36.782713                                                 
C 46.845094 53.027523 30.611131                                                 
C 48.145091 50.581132 36.784977                                                 
C 49.569567 48.361181 30.555915                                                 
C 49.494170 48.237777 36.767049                                                 
C 50.908118 50.708799 30.530333                                                 
C 52.185425 48.232662 36.764090                                                 
C 45.480023 55.356911 30.512783                                                 
C 45.452978 55.263846 36.773214                                                 
C 46.813627 57.698450 30.327881                                                 
C 48.149647 55.265813 36.790957                                                 
C 49.545136 53.037847 30.556007                                                 
C 49.489553 52.923196 36.798795                                                 
C 50.879529 55.382129 30.391369                                                 
C 52.183162 52.926016 36.812133                                                 
C 45.401856 50.477492 43.010519                                                 
C 45.379076 50.422347 49.149195                                                 
C 46.751169 52.818204 43.020183                                                 
C 48.084095 50.426169 49.174403                                                 
C 49.457803 48.148431 43.003406                                                 
C 49.437789 48.089609 49.230448                                                 
C 50.814567 50.487420 43.017210                                                 
C 52.135493 48.094394 49.371425                                                 
C 45.397899 55.152966 43.033962                                                 
C 45.370147 55.098487 49.284184                                                 
C 46.742499 57.485961 43.066855                                                 
C 48.070604 55.103915 49.314759                                                 
C 49.451460 52.821956 43.023640                                                 
C 49.427050 52.768846 49.253985                                                 
C 50.797422 55.155172 43.042914                                                 
C 52.121945 52.776301 49.397896                                                 
C 57.650436 48.407725 29.867950                                                 
C 57.551302 48.242030 36.787941                                                 
C 58.989229 50.757473 29.748956                                                 
C 60.255102 48.241225 36.743900                                                 
C 57.581967 48.168980 43.072906                                                 
C 57.485613 48.107420 49.920981                                                 
C 58.933209 50.509543 43.072885                                                 
C 60.195792 48.114578 50.221934                                                 
C 53.605359 50.723500 30.343854                                                 
C 53.517859 50.586415 36.796990                                                 
C 54.932143 53.068150 30.189962                                                 
C 56.222154 50.590569 36.792373                                                 
C 53.511480 50.495837 43.028600                                                 
C 53.472419 50.438397 49.461353                                                 
C 54.860274 52.836670 43.024045                                                 
C 56.158880 50.444413 49.753043                                                 
C 57.675923 43.740715 29.699147                                                 
C 57.605649 43.556866 36.812360                                                 
C 59.011530 46.065574 29.632751                                                 
C 60.335989 43.553899 36.911879                                                 
C 57.578466 43.505157 43.000608                                                 
C 57.523887 43.437114 50.134531                                                 
C 58.941504 45.830441 43.045452                                                 
C 60.224205 43.439336 50.427231                                                 
C 53.626297 46.051617 30.215714                                                 
C 53.539190 45.883323 36.751743                                                 
C 54.963113 48.392888 30.182347                                                 
C 56.237004 45.886403 36.776473                                                 
C 53.520717 45.834924 42.997950                                                 
C 53.482700 45.756966 49.558198                                                 
C 54.881037 48.163452 43.031792                                                 
C 56.169616 45.772014 49.834657                                                 
C 57.591954 57.753813 29.709596                                                 
C 57.588418 57.604949 36.933532                                                 
C 58.916156 60.115985 29.447526                                                 
C 60.309037 57.603110 36.923545                                                 
C 57.546160 57.510260 42.936580                                                 
C 57.498901 57.450957 50.100887                                                 
C 58.905478 59.862521 42.867037                                                 
C 60.217642 57.445414 50.346107                                                 
C 45.420368 64.679681 29.537365                                                 
C 45.466538 64.625895 36.775232                                                 
C 46.778910 67.022582 29.279829                                                 
C 48.162937 64.638269 36.671557                                                 
C 49.468214 62.349271 29.677887                                                 
C 49.524765 62.283632 36.723993                                                 
C 50.834043 64.718179 29.356689                                                 
C 52.235569 62.278620 36.787615                                                 
C 45.397788 64.504780 43.009676                                                 
C 45.368630 64.414574 50.198148                                                 
C 46.748747 66.859907 42.986329                                                 
C 48.056433 64.420435 50.257256                                                 
C 49.426032 62.140856 43.214103                                                 
C 49.405385 62.091997 50.034512                                                 
C 50.775591 64.486268 43.424174                                                 
C 52.084045 62.105343 50.188857                                                 
C 53.537774 60.048878 29.860684                                                 
C 53.554852 59.942756 36.867154                                                 
C 54.883566 62.421168 29.633009                                                 
C 56.254687 59.940830 36.945681                                                 
C 53.483777 59.821136 43.048941                                                 
C 53.441400 59.778943 49.982575                                                 
C 54.851969 62.171451 43.023867                                                 
C 56.158550 59.782903 50.134860                                                 
C 57.624291 53.082544 29.885613                                                 
C 57.562219 52.932590 36.864453                                                 
C 58.956804 55.443819 29.665478                                                 
C 60.288968 52.962754 36.904869                                                 
C 57.566229 52.845817 42.994805                                                 
C 57.481685 52.788874 49.970052                                                 
C 58.909420 55.193376 42.938923                                                 
C 60.195343 52.809268 50.328055                                                 
C 45.452241 60.020408 30.107440                                                 
C 45.470087 59.942487 36.747687                                                 
C 46.787062 62.349062 29.792552                                                 
C 48.164658 59.945915 36.754325                                                 
C 49.510471 57.706993 30.258404                                                 
C 49.502652 57.602065 36.794259                                                 
C 50.837607 60.038836 29.943785                                                 
C 52.200274 57.605187 36.838185                                                 
C 45.385741 59.827678 43.062453                                                 
C 45.368521 59.758857 49.670661                                                 
C 46.738814 62.158624 43.109076                                                 
C 48.062422 59.767890 49.711833                                                 
C 49.440293 57.483614 43.075697                                                 
C 49.412662 57.440160 49.526945                                                 
C 50.788973 59.824365 43.125586                                                 
C 52.107834 57.446822 49.662274                                                 
C 53.569762 55.393732 30.221090                                                 
C 53.536244 55.269538 36.846285                                                 
C 54.892687 57.742392 29.965325                                                 
C 56.227228 55.266591 36.883384                                                 
C 53.505202 55.159332 43.029597                                                 
C 53.459634 55.118032 49.594819                                                 
C 54.846843 57.497429 43.008009                                                 
C 56.146658 55.119409 49.858719                                                 
H 27.352345 41.284285 29.086458                                                 
H 28.222667 39.492795 36.866136                                                 
H 27.197195 41.114699 42.790612                                                 
H 28.206376 39.296606 50.345795                                                 
H 41.906764 30.234899 29.144418                                                 
C 42.933167 32.024722 29.261589                                                 
H 44.391904 30.125316 36.825511                                                 
H 41.774290 29.947915 42.978536                                                 
C 42.785883 31.750867 42.981071                                                 
H 44.393609 30.000922 50.570407                                                 
H 29.695389 37.202253 29.157590                                                 
C 30.719972 38.992047 29.285068                                                 
H 32.282159 37.145087 36.762128                                                 
H 33.775024 34.846520 29.161598                                                 
C 34.799355 36.632991 29.328091                                                 
H 29.531477 37.034797 42.672820                                                 
C 30.569653 38.821078 42.732333                                                 
H 32.273120 36.958203 50.361977                                                 
H 33.554474 34.659856 42.932273                                                 
C 34.606130 36.439650 42.918588                                                 
H 37.848076 32.547715 29.011585                                                 
C 38.862075 34.339583 29.205452                                                 
H 40.356245 32.480638 36.351665                                                 
H 37.628579 32.272069 43.553051                                                 
C 38.653547 34.062821 43.413448                                                 
H 40.336830 32.333112 50.457127                                                 
H 46.611429 30.260361 29.324268                                                 
H 46.479984 30.007928 42.616718                                                 
H 25.820204 48.285541 35.993621                                                 
C 27.870674 48.284834 36.256891                                                 
H 25.819056 48.038642 50.626215                                                 
C 27.880813 48.048814 50.468154                                                 
H 25.855952 43.540381 36.472177                                                 
H 27.340794 45.969487 29.130324                                                 
C 27.920183 43.557650 36.580319                                                 
H 25.837263 43.363121 50.479958                                                 
H 27.198697 45.780490 43.443823                                                 
C 27.902112 43.364873 50.403077                                                 
H 25.887925 57.673381 36.995934                                                 
H 27.262006 59.939401 29.356538                                                 
C 27.954519 57.663802 36.956382                                                 
H 25.810845 57.398299 50.627816                                                 
H 27.137894 59.779959 43.050360                                                 
C 27.876268 57.403725 50.554898                                                 
H 25.837060 53.010194 36.634096                                                 
H 27.288369 55.251940 29.295509                                                 
C 27.902889 52.979260 36.704971                                                 
H 25.800408 52.712924 50.604700                                                 
H 27.167152 55.095680 43.013621                                                 
C 27.863056 52.713421 50.477490                                                 
C 29.413660 41.275554 29.222514                                                 
C 29.244433 41.286346 36.779350                                                 
C 30.696024 43.635332 29.357406                                                 
C 31.918861 41.233412 36.880082                                                 
C 33.413379 38.916553 29.406184                                                 
C 33.309370 38.940693 36.696537                                                 
C 34.755324 41.295499 29.647436                                                 
C 35.964905 38.915016 36.810473                                                 
C 29.402375 45.970719 29.290684                                                 
C 29.181487 45.900756 36.525960                                                 
C 30.693778 48.285946 29.299795                                                 
C 31.917710 45.913997 36.710026                                                 
C 33.411692 43.624013 29.626042                                                 
C 33.276369 43.591474 36.803755                                                 
C 34.757141 45.970177 29.828800                                                 
C 35.979617 43.595600 36.784356                                                 
C 29.265153 41.101317 42.810942                                                 
C 29.224080 41.095135 50.332710                                                 
C 30.552609 43.444025 42.881429                                                 
C 31.910803 41.041425 50.229952                                                 
C 33.230891 38.754325 42.758364                                                 
C 33.296074 38.752069 50.244083                                                 
C 34.598412 41.116947 42.847934                                                 
C 35.947993 38.732170 50.288063                                                 
C 29.270027 45.784717 43.272655                                                 
C 29.179883 45.741740 50.371263                                                 
C 30.586133 48.117469 43.371704                                                 
C 31.905003 45.733420 50.148020                                                 
C 33.267128 43.452599 42.930178                                                 
C 33.253946 43.409469 50.092836                                                 
C 34.622740 45.789954 43.064995                                                 
C 35.958850 43.414144 49.880629                                                 
C 41.514791 38.996602 29.804657                                                 
C 41.394266 38.934025 36.625514                                                 
C 42.848639 41.325892 30.120412                                                 
C 44.084605 38.904812 36.713121                                                 
C 41.361123 38.760776 43.102777                                                 
C 41.371886 38.768826 50.062092                                                 
C 42.703665 41.107689 43.063399                                                 
C 44.053949 38.754264 49.905543                                                 
C 37.472884 41.300992 29.823794                                                 
C 37.334414 41.266191 36.777609                                                 
C 38.798717 43.640554 30.123610                                                 
C 40.034013 41.252538 36.707129                                                 
C 37.303789 41.110492 42.971612                                                 
C 37.309355 41.098187 49.999993                                                 
C 38.656028 43.452119 43.024700                                                 
C 40.004508 41.084503 49.835933                                                 
C 41.511352 34.316123 29.316368                                                 
C 41.396533 34.277308 36.499027                                                 
C 42.873728 36.670490 29.592437                                                 
C 44.070364 34.199840 36.845314                                                 
C 41.376912 34.011874 43.165518                                                 
C 41.370532 34.120066 50.322385                                                 
C 42.731229 36.409894 43.085670                                                 
C 44.049200 34.076322 50.405753                                                 
C 37.480729 36.596214 29.327607                                                 
C 37.360104 36.630785 36.523509                                                 
C 38.834979 38.977299 29.636666                                                 
C 40.041406 36.586940 36.436386                                                 
C 37.249873 36.375494 43.120651                                                 
C 37.340665 36.444679 50.190761                                                 
C 38.644031 38.760845 43.077904                                                 
C 40.006569 36.404857 50.372186                                                 
C 41.472192 48.323917 30.503554                                                 
C 41.392116 48.255234 36.763025                                                 
C 42.807404 50.668873 30.588116                                                 
C 44.092593 48.247798 36.769957                                                 
C 41.355644 48.136417 43.031681                                                 
C 41.332238 48.079401 49.275300                                                 
C 42.701825 50.475200 43.019607                                                 
C 44.032813 48.080883 49.190110                                                 
C 29.352016 55.267660 29.435988                                                 
C 29.221103 55.319046 36.912325                                                 
C 30.632792 57.612233 29.483875                                                 
C 31.950896 55.308513 36.871695                                                 
C 33.395494 52.975022 29.707903                                                 
C 33.293049 52.953254 36.774296                                                 
C 34.715716 55.302739 29.854086                                                 
C 35.999319 52.942241 36.750380                                                 
C 29.235584 55.108468 43.040516                                                 
C 29.160223 55.044684 50.475466                                                 
C 30.508794 57.457950 42.999580                                                 
C 31.883866 55.063362 50.252677                                                 
C 33.274371 52.806544 43.023767                                                 
C 33.240132 52.719881 50.023870                                                 
C 34.607198 55.147368 43.015551                                                 
C 35.930047 52.734016 49.703283                                                 
C 37.420982 50.646472 30.216242                                                 
C 37.344467 50.600960 36.742225                                                 
C 38.753185 52.990242 30.320449                                                 
C 40.042127 50.595167 36.754195                                                 
C 37.317784 50.472912 43.052695                                                 
C 37.278984 50.408067 49.528561                                                 
C 38.659399 52.815446 43.030758                                                 
C 39.977420 50.413166 49.320417                                                 
C 41.491805 43.652251 30.277784                                                 
C 41.388973 43.590415 36.739545                                                 
C 42.829960 45.992713 30.476901                                                 
C 44.088632 43.577575 36.738406                                                 
C 41.356276 43.454566 43.045746                                                 
C 41.344351 43.412810 49.526750                                                 
C 42.702240 45.792173 43.032349                                                 
C 44.045240 43.410840 49.428052                                                 
C 29.389485 50.613966 29.471446                                                 
C 29.165459 50.646442 36.563525                                                 
C 30.666466 52.961923 29.391572                                                 
C 31.926302 50.621609 36.675511                                                 
C 33.422870 48.291107 29.652755                                                 
C 33.277123 48.268309 36.697464                                                 
C 34.736816 50.636436 29.884902                                                 
C 35.982368 48.263573 36.733772                                                 
C 29.278464 50.455499 43.307681                                                 
C 29.158632 50.369628 50.407589                                                 
C 30.550094 52.806993 42.982268                                                 
C 31.896190 50.382865 50.138578                                                 
C 33.294307 48.126213 43.166606                                                 
C 33.248737 48.069528 49.962892                                                 
C 34.617164 50.468369 43.091145                                                 
C 35.936317 48.073743 49.676109                                                 
C 37.443567 45.971278 30.134397                                                 
C 37.330099 45.932119 36.752675                                                 
C 38.779889 48.311497 30.316737                                                 
C 40.037114 45.926183 36.756282                                                 
C 37.315745 45.786789 43.042143                                                 
C 37.291917 45.745205 49.630133                                                 
C 38.662311 48.133900 43.051840                                                 
C 39.988331 45.743413 49.439341                                                 
C 45.559329 32.038599 29.357799                                                 
C 45.442656 31.906782 36.836763                                                 
C 46.942333 34.339149 29.502219                                                 
C 48.072286 31.890604 36.889936                                                 
H 49.102004 30.099553 36.880348                                                 
H 50.662095 32.622285 29.339194                                                 
C 45.559805 36.681887 29.669039                                                 
C 45.423445 36.555712 36.816757                                                 
C 46.902190 39.025369 29.918727                                                 
C 48.112618 36.534524 36.886835                                                 
C 49.616928 34.400390 29.490835                                                 
C 49.461562 34.158687 36.936449                                                 
C 50.955970 36.689009 29.510996                                                 
C 52.158096 34.188840 36.832015                                                 
C 45.434181 31.780477 42.778572                                                 
C 45.439185 31.779321 50.441617                                                 
C 46.802707 34.080038 42.813885                                                 
C 48.062144 31.765487 50.364776                                                 
H 49.095332 29.977273 50.442793                                                 
H 50.530429 32.386999 42.668532                                                 
C 45.427224 36.436879 42.950469                                                 
C 45.408831 36.416136 50.120014                                                 
C 46.750770 38.791774 42.954093                                                 
C 48.093193 36.401740 50.072859                                                 
C 49.479164 34.163106 42.798042                                                 
C 49.462937 34.043645 50.266665                                                 
C 50.790668 36.459921 42.792464                                                 
C 52.144679 34.080787 50.244628                                                 
H 53.167877 32.384066 36.838262                                                 
H 53.174391 32.295890 50.392492                                                 
C 57.664285 39.086686 29.667680                                                 
C 57.665576 38.826047 36.726559                                                 
C 59.032678 41.396642 29.482416                                                 
C 60.318511 38.911398 36.974924                                                 
C 57.527803 38.867188 43.138667                                                 
C 57.556257 38.744440 50.418853                                                 
C 58.947046 41.147155 43.039849                                                 
C 60.229360 38.822489 50.562921                                                 
C 45.529265 46.004929 30.527790                                                 
C 45.440589 45.908839 36.758096                                                 
C 46.870635 48.347892 30.613883                                                 
C 48.146340 45.894681 36.756297                                                 
C 49.585066 43.693348 30.306002                                                 
C 49.491230 43.557789 36.749808                                                 
C 50.928669 46.034128 30.398759                                                 
C 52.198984 43.545608 36.732516                                                 
C 45.402381 45.801861 43.013561                                                 
C 45.388803 45.745151 49.255680                                                 
C 46.753661 48.141455 43.007261                                                 
C 48.091569 45.746884 49.271134                                                 
C 49.447744 43.486937 42.978120                                                 
C 49.443921 43.412930 49.440565                                                 
C 50.809090 45.822317 42.988794                                                 
C 52.141156 43.420204 49.589911                                                 
C 53.630893 41.401751 29.840271                                                 
C 53.552248 41.202179 36.700749                                                 
C 54.974389 43.726309 29.949339                                                 
C 56.267218 41.206538 36.737707                                                 
C 53.491622 41.192792 43.007908                                                 
C 53.490335 41.091045 49.883573                                                 
C 54.868048 43.511777 43.002478                                                 
C 56.196379 41.102309 50.157487                                                 
H 57.287401 34.694458 36.532150                                                 
H 58.698120 37.300654 29.508154                                                 
H 57.238661 34.656847 50.512757                                                 
H 58.567075 37.065290 43.135787                                                 
C 45.543276 41.341151 30.173166                                                 
C 45.442117 41.232283 36.743215                                                 
C 46.886464 43.677393 30.373092                                                 
C 48.134042 41.219097 36.763235                                                 
C 49.584621 39.042890 29.828690                                                 
C 49.475762 38.871250 36.798645                                                 
C 50.939017 41.370330 30.022629                                                 
C 52.184846 38.850824 36.710202                                                 
C 45.396849 41.123724 43.017136                                                 
C 45.400430 41.078532 49.600564                                                 
C 46.748342 43.468508 42.997912                                                 
C 48.095902 41.077431 49.589020                                                 
C 49.443083 38.819099 42.899509                                                 
C 49.446412 38.743913 49.841702                                                 
C 50.795696 41.152729 42.971324                                                 
C 52.148793 38.745140 49.963852                                                 
C 53.634271 36.749789 29.646400                                                 
C 53.541413 36.446925 36.694304                                                 
C 55.000009 39.044049 29.540694                                                 
C 56.257471 36.492749 36.436224                                                 
C 53.466008 36.541620 43.145414                                                 
C 53.524832 36.366672 50.234629                                                 
C 54.845196 38.856364 43.054417                                                 
C 56.198163 36.434503 50.353921                                                 
H 61.362919 37.131360 37.087674                                                 
H 62.740215 39.668096 29.366904                                                 
H 61.264381 37.039519 50.694668                                                 
H 62.624271 39.374971 43.071055                                                 
H 28.266876 61.729783 36.945508                                                 
H 28.172082 61.458439 50.669406                                                 
C 29.328456 59.964178 29.388948                                                 
C 29.284211 59.928786 36.914646                                                 
C 30.624913 62.246790 29.346820                                                 
C 31.956681 59.975457 36.866142                                                 
C 33.354032 57.642551 29.647017                                                 
C 33.313698 57.624781 36.819495                                                 
C 34.683470 59.975545 29.620004                                                 
C 36.019304 57.609919 36.707550                                                 
H 29.586447 64.031955 29.271734                                                 
H 32.320562 64.046604 36.282622                                                 
C 33.323275 62.337999 29.401132                                                 
C 33.354716 62.253527 36.482913                                                 
C 34.662106 64.620537 29.325500                                                 
C 36.031328 62.270641 36.398764                                                 
C 29.201506 59.795853 43.063602                                                 
C 29.193122 59.660825 50.579769                                                 
C 30.512290 62.094816 43.187778                                                 
C 31.873717 59.720644 50.520137                                                 
C 33.242849 57.483470 43.017920                                                 
C 33.228528 57.385991 50.240767                                                 
C 34.575787 59.829946 43.115755                                                 
C 35.933316 57.397002 49.960724                                                 
H 29.456252 63.872795 43.254248                                                 
H 32.240788 63.806626 50.768293                                                 
C 33.180494 62.186694 43.224788                                                 
C 33.255772 62.032514 50.396546                                                 
C 34.571684 64.545699 43.332270                                                 
C 35.927118 62.058780 50.378570                                                 
C 41.423181 57.675149 30.257453                                                 
C 41.417135 57.600172 36.728512                                                 
C 42.756326 60.008982 30.082669                                                 
C 44.114725 57.602716 36.752966                                                 
C 41.346191 57.491416 43.036776                                                 
C 41.317983 57.418663 49.550590                                                 
C 42.694778 59.830958 43.029738                                                 
C 44.019365 57.427247 49.462300                                                 
C 37.378159 59.986681 29.821229                                                 
C 37.383635 59.923970 36.613064                                                 
C 38.698327 62.319173 29.658721                                                 
C 40.072198 59.941125 36.691707                                                 
C 37.285921 59.838772 43.110806                                                 
C 37.283633 59.711553 50.051294                                                 
C 38.638541 62.186516 43.104073                                                 
C 39.969883 59.739339 49.860655                                                 
C 41.447356 53.001040 30.503202                                                 
C 41.401524 52.930103 36.754176                                                 
C 42.783372 55.344891 30.466079                                                 
C 44.101016 52.926789 36.772827                                                 
C 41.352168 52.813668 43.023049                                                 
C 41.322379 52.751670 49.282029                                                 
C 42.694818 55.157044 43.028261                                                 
C 44.022556 52.757640 49.199339                                                 
C 37.400151 55.321242 30.129423                                                 
C 37.355260 55.269657 36.735926                                                 
C 38.730299 57.663951 30.103303                                                 
C 40.060148 55.266759 36.730857                                                 
C 37.304086 55.157977 43.035376                                                 
C 37.272837 55.071735 49.666796                                                 
C 38.637993 57.502117 43.054868                                                 
C 39.968064 55.083384 49.456344                                                 
C 41.355091 67.025704 29.356587                                                 
C 41.419882 66.922751 36.817423                                                 
C 42.758524 69.319805 29.307067                                                 
C 44.094349 66.984605 36.858030                                                 
C 41.356925 66.889305 42.958028                                                 
C 41.321100 66.705695 50.400066                                                 
C 42.742347 69.164225 42.959555                                                 
C 43.995791 66.762237 50.373084                                                 
H 37.652122 68.765164 29.232962                                                 
H 40.381238 68.710625 36.878849                                                 
H 37.658887 68.651060 43.221338                                                 
H 40.283210 68.489302 50.543656                                                 
C 41.393387 62.329003 29.770192                                                 
C 41.431463 62.271450 36.768053                                                 
C 42.738660 64.679112 29.548413                                                 
C 44.122276 62.279416 36.769808                                                 
C 41.341030 62.177083 43.003669                                                 
C 41.332589 62.066316 50.064191                                                 
C 42.709107 64.520341 42.947952                                                 
C 44.017130 62.078166 49.948530                                                 
H 33.618488 66.399020 29.170548                                                 
H 33.531852 66.341358 43.326377                                                 
C 37.312227 64.682388 29.398372                                                 
C 37.410027 64.568458 36.461774                                                 
C 38.685995 66.979419 29.345636                                                 
C 40.078950 64.637285 36.823089                                                 
C 37.290180 64.581921 43.201197                                                 
C 37.292270 64.364168 50.351346                                                 
C 38.670456 66.847654 43.144945                                                 
C 39.980285 64.424462 50.407671                                                 
C 61.713742 41.463318 29.430717                                                 
C 61.631281 41.232168 37.064853                                                 
C 63.023575 43.734877 29.388817                                                 
H 63.691027 41.245847 37.205620                                                 
C 61.738994 46.084565 29.403826                                                 
C 61.598450 45.927176 36.739189                                                 
C 63.035217 48.432141 29.404222                                                 
H 63.678927 45.943222 36.649367                                                 
H 65.088974 43.741014 29.316140                                                 
C 61.607100 41.169355 43.072085                                                 
C 61.518991 41.103907 50.561932                                                 
C 62.955168 43.460669 43.126590                                                 
H 63.581629 41.129056 50.700135                                                 
C 61.687325 45.798631 43.146877                                                 
C 61.525003 45.800458 50.241104                                                 
C 63.017846 48.171829 43.314889                                                 
H 63.575742 45.822690 50.573588                                                 
H 65.023938 43.444975 43.184573                                                 
C 61.673922 55.451097 29.441623                                                 
C 61.600961 55.254774 36.891123                                                 
C 62.936465 57.822401 29.362439                                                 
H 63.670548 55.245685 36.949394                                                 
H 65.064817 53.151824 29.318620                                                 
C 61.640555 55.214189 42.928692                                                 
C 61.505016 55.100038 50.364292                                                 
C 62.913639 57.547198 42.929412                                                 
H 63.566518 55.090404 50.535314                                                 
H 65.026725 52.877298 43.087884                                                 
C 61.737875 50.770909 29.479646                                                 
C 61.554460 50.605294 36.496628                                                 
C 63.002532 53.126038 29.449879                                                 
H 65.097301 48.437380 29.276331                                                 
C 61.680447 50.541042 43.155120                                                 
C 61.493961 50.457405 50.210290                                                 
C 62.956847 52.863384 43.052917                                                 
H 65.094240 48.177290 43.417966                                                 
H 41.717141 71.104579 29.259777                                                 
H 44.449087 71.058409 37.004721                                                 
H 41.711893 70.955919 42.963674                                                 
H 44.337041 70.839012 50.538965                                                 
C 45.367762 69.319595 29.262764                                                 
C 45.484497 69.276965 36.882473                                                 
H 46.409633 71.104653 29.184748                                                 
C 48.125777 69.291606 36.689545                                                 
C 49.448757 66.997823 29.404220                                                 
C 49.530884 67.017040 36.536419                                                 
H 50.474231 68.791456 29.293119                                                 
C 52.244953 66.958689 36.309831                                                 
H 49.150129 71.086654 36.662453                                                 
C 45.368791 69.150532 42.977285                                                 
C 45.384525 69.058784 50.500142                                                 
H 46.417807 70.933040 42.967801                                                 
C 48.013533 69.064978 50.570746                                                 
C 49.422946 66.794145 43.342415                                                 
C 49.425636 66.770510 50.512258                                                 
H 50.460439 68.585588 43.517011                                                 
C 52.076768 66.740202 50.600226                                                 
H 49.046462 70.851238 50.670933                                                 
H 57.326104 66.376136 36.773709                                                 
H 57.159922 66.224430 50.617359                                                 
H 53.276067 68.736526 36.089004                                                 
H 53.100816 68.528153 50.766894                                                 
C 57.539953 62.397300 29.567738                                                 
C 57.620641 62.303550 36.970407                                                 
H 58.557337 64.190264 29.402925                                                 
C 60.301907 62.230119 36.959808                                                 
C 57.514640 62.147250 43.113516                                                 
C 57.512529 62.156305 50.385677                                                 
H 58.540042 63.943266 43.040073                                                 
C 60.205709 62.081630 50.482763                                                 
C 53.494787 64.687448 29.459639                                                 
C 53.641167 64.651140 36.657086                                                 
C 56.269938 64.599119 36.834077                                                 
C 53.459708 64.447754 43.345574                                                 
C 53.447300 64.479977 50.484584                                                 
C 56.129578 64.439537 50.470871                                                 
C 61.611729 60.066220 29.364283                                                 
C 61.605179 59.942742 36.925030                                                 
H 62.617341 61.870537 29.262873                                                 
H 63.670693 59.916693 36.897190                                                 
H 65.002593 57.830747 29.272820                                                 
H 61.337616 64.016915 36.937089                                                 
C 61.585490 59.817715 42.897769                                                 
C 61.508986 59.791013 50.512250                                                 
H 62.601673 61.616025 42.854516                                                 
H 63.570908 59.769297 50.638567                                                 
H 64.980922 57.544408 42.933716                                                 
H 61.234964 63.867140 50.616225                                                 
H 63.545871 50.463081 50.554431                                                 
H 36.313811 34.651942 50.308551                                                 
H 36.267968 66.126695 50.751805                                                 
H 27.206698 50.461425 43.486948                                                 
H 54.504679 66.237534 43.501756                                                 
H 63.633602 50.606608 36.322071                                                 
H 54.509146 34.739326 43.084869                                                 
H 36.312606 34.840453 36.366182                                                 
H 36.385516 66.367847 36.259410                                                 
H 54.516323 66.479004 29.307056                                                 
H 27.325964 50.602511 29.317711                                                 
H 54.674581 34.968193 29.482770                                                 
Li 58.864863 60.126407 33.424403                                                
Li 30.330174 43.373048 46.810304                                                
Li 44.079013 34.077709 32.911069                                                
Li 46.816374 67.022216 46.929044                                                
Li 60.237856 43.405008 46.522581                                                
Li 31.825550 60.122876 32.937203                                                
Li 51.194696 64.441740 33.174194                                                
Li 39.922785 65.059911 32.939450                                                
Li 60.311229 53.044806 46.473051                                                
Li 30.121750 52.834751 46.869732                                                
Li 35.466850 38.847150 46.408770                                                
Li 55.371312 38.542490 46.844941                                                
Li 36.080423 38.463625 32.931973                                                
Li 50.591831 36.216647 33.355726                                                
Li 39.967556 36.360191 46.570209                                                
Li 50.775923 35.916369 46.662817                                                
Li 54.827299 62.585429 46.881476                                                
Li 40.296343 64.642912 46.527595                                                
Li 30.478046 53.379441 33.272434                                                
Li 30.609062 48.061554 33.124406                                                
Li 31.670334 59.611333 46.586023                                                
Li 60.696459 53.386893 33.042370                                                
Li 55.022008 38.701914 33.298970                                                
Li 60.793559 48.097314 32.957155                                                
Li 46.471997 67.246116 33.225343                                                
Li 59.358355 59.839590 46.824441                                                
Li 31.540873 41.303892 32.924551                                                
Li 44.538125 33.710742 46.462868                                                
Li 59.465244 41.218062 33.393563                                                
Li 34.870825 64.376888 39.563741                                                
Li 28.300792 48.144033 40.105856                                                
Li 34.775395 64.124033 47.113279                                                
Li 51.952638 66.421587 40.144188                                                
Li 38.833109 34.456200 39.587010                                                
Li 62.999658 48.565817 39.574004                                                
Li 62.747713 48.307886 47.091437                                                
Li 56.134502 36.665100 40.147554                                                
Li 28.495440 53.991360 39.993600                                                
%ENDBLOCK POSITIONS_ABS                                                         

--------------------------------------------------------------------------------
-------------------------------- END INPUT FILE --------------------------------
--------------------------------------------------------------------------------


 
<<<<<<<<<<<<<<<<<<<<<<<<<<<<<<<<< Full system >>>>>>>>>>>>>>>>>>>>>>>>>>>>>>>>>>
<<<<<<<<<<<<<<<<<<<<<<<<<<< PAW Dataset information >>>>>>>>>>>>>>>>>>>>>>>>>>>
File: ~/pp/paw/c_pbe_abinit.paw; rc = 1.25 bohr; shape type =  3; rshape = 1.25 bohr;
  Atomic number:  6;  ionic charge:  4.000000
    Partial Wave 1: l = 0
    Partial Wave 2: l = 0
    Partial Wave 3: l = 1
    Partial Wave 4: l = 1
  Core charge supplied for Nonlinear Core Corrections
File: ~/pp/paw/h_pbe_abinit.paw; rc = 0.90 bohr; shape type =  3; rshape = 0.90 bohr;
  Atomic number:  1;  ionic charge:  1.000000
    Partial Wave 1: l = 0
    Partial Wave 2: l = 0
File: ~/pp/paw/li_pbe_abinit.paw; rc = 1.42 bohr; shape type =  3; rshape = 1.42 bohr;
  Atomic number:  3;  ionic charge:  3.000000
    Partial Wave 1: l = 0
    Partial Wave 2: l = 0
    Partial Wave 3: l = 0
    Partial Wave 4: l = 1
    Partial Wave 5: l = 1
<<<<<<<<<<<<<<<<<<<<<<<<<<<<<<<<<<<<<<< >>>>>>>>>>>>>>>>>>>>>>>>>>>>>>>>>>>>>>>

-------------------------- Atom counting information ---------------------------
Symbol    Natoms    Nngwfs    Nprojs
  C        484      1936      3872
  H        108       108       216
  Li        38       190       342
.......   ......    ......    ......
Totals:    630      2234      4430
--------------------------------------------------------------------------------

=============================== PSINC grid sizes ===============================
                      Simulation cell:  189 x 189 x 189
                              FFT-box:  117 x 117 x 117
                                  PPD:    7 x   7 x   1
Grid space d1=  0.499927596032a0 (KE cutoff=  30.39413Eh = 827.06648eV)
Grid space d2=  0.499927596032a0 (KE cutoff=  30.39413Eh = 827.06648eV)
Grid space d3=  0.499927596032a0 (KE cutoff=  30.39413Eh = 827.06648eV)
================================================================================
  
WARNING in cell_grid_distribute:
Average of less than one 23-slab per node, so workload cannot be
equally balanced between nodes.

********************* Fourier parallelisation information **********************
       Coarse grid (whole simulation cell) dimensions:    189   189   189
          Real-space ('12') slabs/node (min max mean):      1     2     1
         Recip-space ('23') slabs/node (min max mean):      0     1     0
********************************************************************************

********************* Fourier parallelisation information **********************
       Double grid (whole simulation cell) dimensions:    378   378   378
          Real-space ('12') slabs/node (min max mean):      2     3     2
         Recip-space ('23') slabs/node (min max mean):      1     2     1
********************************************************************************

Atom SCF Calculation for C  : Z (AE atom) =   6 : Z (PS atom) =   4
Config String: 2s2 2p2
Orbitals (num,occ):  2     2.00 2.00
Orbitals   (num,l):  2        0    1
Real-space Grid (nr,dr,rmax): 1377    0.0065406977    9.0000000000
Spherical Bessel Basis (nsws,lmax,cutoff):   37    2  183.0099912382
Confining potential (l,width,scale):  0    3.0000000000  100.0000000000
Confining potential (l,width,scale):  1    3.0000000000  100.0000000000
  1         -5.4350126632   -1.2715272878    4.5135247139   -1.5681949477
  2         -5.3876836850   -1.3562195125    4.4235426751   -1.5380057521
  3         -5.3928844498   -1.3758175853    4.4021699684   -1.5318377811
  4         -5.3988962903   -1.3800385428    4.3975423583   -1.5307324410
  5         -5.4018428823   -1.3823489590    4.3950111904   -1.5301555648
  6         -5.4033571720   -1.3835805046    4.3936635548   -1.5298576834
  7         -5.4041480647   -1.3842324820    4.3929512000   -1.5297032953
  8         -5.4045641108   -1.3845769138    4.3925755232   -1.5296229456
  9         -5.4047838258   -1.3847587737    4.3923775340   -1.5295810042
 10         -5.4049001347   -1.3848548089    4.3922731819   -1.5295590658
 11         -5.4049618018   -1.3849055476    4.3922181562   -1.5295475724
 12         -5.4049945351   -1.3849323732    4.3921891206   -1.5295415432
 13         -5.4050119258   -1.3849465673    4.3921737867   -1.5295383767
 14         -5.4050211723   -1.3849540841    4.3921656816   -1.5295367119
 15         -5.4050260920   -1.3849580684    4.3921613935   -1.5295358358
 16         -5.4050287113   -1.3849601822    4.3921591228   -1.5295353742
 17         -5.4050301068   -1.3849613045    4.3921579192   -1.5295351307
 18         -5.4050308507   -1.3849619010    4.3921572806   -1.5295350022
 19         -5.4050312476   -1.3849622183    4.3921569415   -1.5295349343
 20         -5.4050314594   -1.3849623873    4.3921567612   -1.5295348984
 21         -5.4050315725   -1.3849624773    4.3921566653   -1.5295348794
 22         -5.4050316330   -1.3849625253    4.3921566143   -1.5295348693
Atom SCF converged after  22 iterations to a total energy of     -5.40503163

Atom SCF Calculation for H  : Z (AE atom) =   1 : Z (PS atom) =   1
Config String: 1s1
Orbitals (num,occ):  1     1.00
Orbitals   (num,l):  1        0
Real-space Grid (nr,dr,rmax): 1377    0.0065406977    9.0000000000
Spherical Bessel Basis (nsws,lmax,cutoff):   37    1  183.0099912382
Confining potential (l,width,scale):  0    3.0000000000  100.0000000000
  1         -0.3605254152   -0.2399954029    0.2820952946   -0.2424203210
  2         -0.4156854077   -0.2398249290    0.2871789324   -0.2464796203
  3         -0.4412552402   -0.2379720642    0.2899127187   -0.2499011370
  4         -0.4517265951   -0.2371980236    0.2908966173   -0.2514141636
  5         -0.4557775773   -0.2369735141    0.2911607883   -0.2519713623
  6         -0.4573363459   -0.2369240355    0.2912108681   -0.2521663171
  7         -0.4579443228   -0.2369187864    0.2912112833   -0.2522344454
  8         -0.4581858602   -0.2369215483    0.2912049187   -0.2522587615
  9         -0.4582834939   -0.2369242589    0.2912002081   -0.2522677042
 10         -0.4583235236   -0.2369258837    0.2911975892   -0.2522710965
 11         -0.4583401154   -0.2369267223    0.2911962825   -0.2522724192
 12         -0.4583470483   -0.2369271266    0.2911956643   -0.2522729467
 13         -0.4583499624   -0.2369273145    0.2911953803   -0.2522731607
 14         -0.4583511926   -0.2369274000    0.2911952521   -0.2522732486
 15         -0.4583517136   -0.2369274385    0.2911951948   -0.2522732850
 16         -0.4583519349   -0.2369274556    0.2911951693   -0.2522733002
 17         -0.4583520290   -0.2369274632    0.2911951581   -0.2522733066
Atom SCF converged after  17 iterations to a total energy of     -0.45835203

Atom SCF Calculation for Li : Z (AE atom) =   3 : Z (PS atom) =   3
Config String: 1s2 2s1 2p0
Orbitals (num,occ):  3     2.00 1.00 0.00
Orbitals   (num,l):  3        0    0    1
Real-space Grid (nr,dr,rmax): 1377    0.0065406977    9.0000000000
Spherical Bessel Basis (nsws,lmax,cutoff):   37    2  183.0099912382
Confining potential (l,width,scale):  0    3.0000000000  100.0000000000
Confining potential (l,width,scale):  1    3.0000000000  100.0000000000
  1         -6.0640888065   -4.6655401716    2.5388576516   -0.9989538799
  2         -6.9627542978   -4.0954079129    2.9808988108   -1.1965571426
  3         -7.2692687601   -3.8889996707    3.2029735703   -1.3193883705
  4         -7.3784440298   -3.8322099748    3.2868571989   -1.3711018151
  5         -7.4170278248   -3.8191968371    3.3144974220   -1.3911175539
  6         -7.4303549880   -3.8172386945    3.3228486489   -1.3986896266
  7         -7.4348052089   -3.8175483495    3.3251259310   -1.4015352495
  8         -7.4362242328   -3.8180607346    3.3256233205   -1.4026016384
  9         -7.4366459715   -3.8184145665    3.3256561549   -1.4029998726
 10         -7.4367560626   -3.8186169740    3.3256001574   -1.4031477379
 11         -7.4367765260   -3.8187239825    3.3255481763   -1.4032021548
 12         -7.4367751741   -3.8187782620    3.3255144587   -1.4032219192
 13         -7.4367707398   -3.8188051288    3.3254952336   -1.4032289600
 14         -7.4367680349   -3.8188156035    3.3254870176   -1.4032309087
 15         -7.4367661982   -3.8188217406    3.3254819951   -1.4032318132
 16         -7.4367650112   -3.8188253257    3.3254789583   -1.4032322224
 17         -7.4367642682   -3.8188274151    3.3254771375   -1.4032324006
 18         -7.4367638134   -3.8188286307    3.3254760529   -1.4032324736
 19         -7.4367635392   -3.8188293370    3.3254754103   -1.4032325004
 20         -7.4367633760   -3.8188297469    3.3254750310   -1.4032325080
 21         -7.4367632796   -3.8188299846    3.3254748079   -1.4032325082
Atom SCF converged after  21 iterations to a total energy of     -7.43676328

Determining parallel strategy ...
... using space-filling curve
... NGWF load balancing: max     16;  min     12;  average     14
... Projector load balancing: max     32;  min     24;  average     28
... done
Calculating Ewald energy ...
              Ewald: real-space energy =   36528.874777
        Ewald: reciprocal-space energy =   36325.375418
         Ewald: (sum_charge)**2 Energy =    2874.686264
         Ewald: (sum_charge**2) Energy =     253.912337
                          Ewald Energy =   69725.651593
======================= Empirical dispersion information =======================
Model : Grimme D2
Dispersion Correction Energy: -0.23451944E+01 Hartree
================================================================================
Basis initialisation ...... NGWF spheres initialised
... Projector spheres initialised
... NGWF tight boxes initialised
... Projector tight boxes initialised
... Tight-boxes gathered
... NGWF basis size (local,global):     282286  45059918
... PAW projector initialisation
... done

============================= Charge Augmentation ==============================
                           Aug box size:   13 x  13 x  13
================================================================================

========================== Sparse matrix information ===========================
                        Overlap matrix filling:  37.02%
                        Density kernel filling: 100.00%
              NGWF-Proj overlap matrix filling:  10.38%
                    Aug Overlap matrix filling:  41.34%
                    Hamiltonian matrix filling:  41.34%
                  NGWF diagonal matrix filling:   0.18%
                             KS matrix filling: 100.00% 
                           KSKS matrix filling: 100.00% 
================================================================================

Sparse matrix initialisation ... done
NGWF initialisation ...... done
============ Calculation of NGWF S^-1 using Hotelling algorithm ================ 
         Iteration  |  Frobenius norm and Maximum abs value    (of I-S*S_n^-1)   
               1       0.46952346E+02     0.99661194E+00
               2       0.46656609E+02     0.99324625E+00
               3       0.46111004E+02     0.98657962E+00
               4       0.45171491E+02     0.97349047E+00
               5       0.43719014E+02     0.94818867E+00
               6       0.41746431E+02     0.90052123E+00
               7       0.39313672E+02     0.81458588E+00
               8       0.36459196E+02     0.78941277E+00
               9       0.33370623E+02     0.76876025E+00
              10       0.30351960E+02     0.74674855E+00
              11       0.27237800E+02     0.73065609E+00
              12       0.23387944E+02     0.70261940E+00
              13       0.18362208E+02     0.67077338E+00
              14       0.12377701E+02     0.61751999E+00
              15       0.68539142E+01     0.53092604E+00
              16       0.35904677E+01     0.43483197E+00
              17       0.22389946E+01     0.34895704E+00
              18       0.13171303E+01     0.22789386E+00
              19       0.55111687E+00     0.98053597E-01
              20       0.12614387E+00     0.27812416E-01
              21       0.97688041E-02     0.25951991E-02
              22       0.79115139E-04     0.22798912E-04
              23       0.60268238E-08     0.17686030E-08
              24       0.61934081E-13     0.37747583E-14
================================================================================
Calculating core density ...
================================= Core Density =================================
               Core den box size:   21 x  21 x  21
================================================================================
 ... done
Up spin density kernel initialisation ...... done
Down spin density kernel initialisation ...... done

Writing density kernel to file "38/592nano.dkn" ... done

>>> Optimising kernel for current NGWFs:

--------------------------- Ensemble-DFT optimisation --------------------------
Running ScaLAPACK on  160 processor(s).

--------------------------------------------------------------------------------
  Iter                              Commutator    Free_energy(A=E-TS)     DeltaA
#    0                          0.001282799294   -3103.32103202121243  -3.10E+03

Step                       =       0.381966011250
Energy                     =   -3103.285139853399
Entropy (-TS)              =      -0.035892167463
Free energy (A=E-TS)       =   -3103.321032021212
Est. 0K Energy 0.5*(E+A)   =   -3103.303085937306
Residual Non-orthogonality =       0.000000000000
Residual N_electrons       =      -0.000000000351

Spin          Integrated_Ne            Fermi_level     Delta_Fermi_level
   1      1078.999999999241        -0.231087114290             -2.31E-01
   2      1078.999999999241        -0.231087114290             -2.31E-01

                           Spin 1           |                 Spin 2           |
     Orb |    H-eigenvalues     Occupancies |    H-eigenvalues     Occupancies |
       1 |    -1.9038442403    1.0000000000 |    -1.9038442403    1.0000000000 | 
                          ------                             ------
    1075 |    -0.2421870868    0.9708323689 |    -0.2421870868    0.9708323689 | 
    1076 |    -0.2386568185    0.9160864499 |    -0.2386568185    0.9160864499 | 
    1077 |    -0.2356396444    0.8080789043 |    -0.2356396444    0.8080789043 | 
    1078 |    -0.2314569838    0.5291657438 |    -0.2314569838    0.5291657438 | 
    1079 |    -0.2299570218    0.4117210926 |    -0.2299570218    0.4117210926 | 
                 - Gap at zero temperature - |     - Gap at zero temperature -
    1080 |    -0.2288393564    0.3296461627 |    -0.2288393564    0.3296461627 | 
    1081 |    -0.2282395726    0.2892185081 |    -0.2282395726    0.2892185081 | 
    1082 |    -0.2278003670    0.2615606570 |    -0.2278003670    0.2615606570 | 
    1083 |    -0.2264168975    0.1862235482 |    -0.2264168975    0.1862235482 | 
    1084 |    -0.2257168184    0.1550139013 |    -0.2257168184    0.1550139013 | 
                          ------                             ------
    2234 |     0.5562638955    0.0000000000 |     0.5562638955    0.0000000000 | 

                       |  Abs_value |  Threshold | Converged
     Delta_Free_energy |   3.10E+03 |   1.00E-06 |        No
     Delta_Energy      |   3.10E+03 |   1.00E-04 |        No
     Delta_Entropy     |   3.59E-02 |   1.00E-04 |        No
     Commutator        |   1.28E-03 |   1.00E-05 |        No
     Delta_Fermi_level |   2.31E-01 |   1.00E-03 |        No

  Line search of the free energy minimum:
  Step_type        Step             Free_energy   Predicted_free_energy
.   Initial    0.000000    -3103.32103202121243
.    Trial1    0.381966    -3104.51387974843192
.    Trial2    0.618034    -3103.40203869009838
. Quadratic    0.314188    -3104.54750474400998    -3104.57210070437623

--------------------------------------------------------------------------------
  Iter                              Commutator    Free_energy(A=E-TS)     DeltaA
#    1                          0.000637823315   -3104.54750474400998  -1.23E+00

Step                       =       0.314188017761
Energy                     =   -3104.512307707269
Entropy (-TS)              =      -0.035197036843
Free energy (A=E-TS)       =   -3104.547504744010
Est. 0K Energy 0.5*(E+A)   =   -3104.529906225640
Residual Non-orthogonality =       0.000000000000
Residual N_electrons       =       0.000000000103

Spin          Integrated_Ne            Fermi_level     Delta_Fermi_level
   1      1079.000000000081        -0.203952290195              2.71E-02
   2      1079.000000000423        -0.203952290092              2.71E-02

                           Spin 1           |                 Spin 2           |
     Orb |    H-eigenvalues     Occupancies |    H-eigenvalues     Occupancies |
       1 |    -1.9267126674    1.0000000000 |    -1.9267126671    1.0000000000 | 
                          ------                             ------
    1075 |    -0.2152975690    0.9729476351 |    -0.2152975688    0.9729476351 | 
[...]
 C   158 -- C   288       -0.06      0.00      5.42440
 C    78 -- C   540       -0.06      0.00      5.42468
 C    71 -- C    93       -0.09      0.00      5.42491
 C   481 -- C   489       -0.08     -0.00      5.42519
 H   577 -- Li  618       -0.02      0.00      5.42542
 C   323 -- C   385       -0.08      0.00      5.42564
 C   252 -- C   286       -0.06      0.00      5.42587
 C   224 -- C   242       -0.08      0.00      5.42594
 C   342 -- C   388       -0.07      0.00      5.42657
 C   183 -- C   237       -0.07      0.00      5.42684
 C   189 -- C   255       -0.08      0.00      5.42709
 C   477 -- C   485       -0.08      0.00      5.42851
 C   202 -- C   216       -0.08     -0.00      5.42872
 C   319 -- C   361       -0.08      0.00      5.42896
 C   293 -- C   295       -0.09     -0.00      5.42903
 C    85 -- C    95       -0.08     -0.00      5.42936
 C   262 -- C   292       -0.08     -0.00      5.42974
 C   285 -- C   287       -0.08      0.00      5.42978
 C   318 -- C   380       -0.07      0.00      5.42988
 C    39 -- C   516       -0.07      0.00      5.42994
 C    42 -- C    60       -0.09      0.00      5.42994
 C   420 -- C   444       -0.08      0.00      5.43020
 C    83 -- C    85       -0.08      0.00      5.43039
 H   174 -- Li  611       -0.03     -0.00      5.43104
 C   153 -- C   215       -0.06      0.00      5.43123
 C   470 -- C   547       -0.08     -0.00      5.43163
 C    88 -- C   560       -0.07      0.00      5.43229
 C    72 -- C   560       -0.08     -0.00      5.43247
 C   186 -- C   212       -0.08     -0.00      5.43254
 C    35 -- C   497       -0.07     -0.00      5.43290
 C   316 -- C   390       -0.08      0.00      5.43291
 C    52 -- C   338       -0.08     -0.00      5.43305
 C   406 -- C   440       -0.08      0.00      5.43310
 C   197 -- C   295       -0.08      0.00      5.43333
 C   440 -- C   488       -0.08     -0.00      5.43361
 C   445 -- C   467       -0.07      0.00      5.43389
 C   330 -- C   394       -0.08      0.00      5.43416
 C   227 -- C   309       -0.08     -0.00      5.43421
 C    96 -- C   567       -0.08      0.00      5.43467
 C    38 -- C    56       -0.08      0.00      5.43573
 C   261 -- C   427       -0.09     -0.00      5.43597
 C   362 -- C   392       -0.06      0.00      5.43755
 C   231 -- C   323       -0.08     -0.00      5.43760
 C   368 -- C   394       -0.08      0.00      5.43777
 C   198 -- C   204       -0.08     -0.00      5.43791
 C   429 -- C   443       -0.06      0.00      5.43795
 C   253 -- C   413       -0.08     -0.00      5.43860
 C   201 -- C   239       -0.08      0.00      5.43930
 C   190 -- Li  623       -0.07     -0.00      5.43938
 C   254 -- C   284       -0.07      0.00      5.43953
 C    51 -- C   521       -0.07     -0.00      5.44027
 C    76 -- Li  625       -0.07     -0.00      5.44070
 C    99 -- C   521       -0.08     -0.00      5.44105
 C    37 -- C   508       -0.06      0.00      5.44126
 C   444 -- C   492       -0.08     -0.00      5.44155
 C   185 -- C   235       -0.07     -0.00      5.44182
 C    38 -- C   104       -0.08     -0.00      5.44203
 C   212 -- C   230       -0.08      0.00      5.44264
 C   181 -- C   183       -0.08     -0.00      5.44548
 C   466 -- C   538       -0.08     -0.00      5.44614
 C    55 -- C   525       -0.07     -0.00      5.45010
 C   333 -- C   365       -0.08     -0.00      5.45359
 C    34 -- C    52       -0.08      0.00      5.45421
 C   343 -- C   365       -0.08      0.00      5.45571
 C    39 -- C   506       -0.07      0.00      5.45741
 C    34 -- C   100       -0.08     -0.00      5.45836
 C   427 -- C   445       -0.07      0.00      5.45938
 H   130 -- Li  619       -0.02      0.00      5.46138
 C    80 -- C   538       -0.06      0.00      5.46178
 C   188 -- C   286       -0.06      0.00      5.46286
 H   370 -- Li  615       -0.02      0.00      5.46330
 C   111 -- Li  599       -0.07     -0.00      5.47253
 C   423 -- C   489       -0.07     -0.00      5.47325
 C   190 -- C   284       -0.07      0.00      5.47653
 C    76 -- C   564       -0.06      0.00      5.47826
 C   231 -- C   241       -0.06      0.00      5.47988
 C   338 -- C   380       -0.06      0.00      5.48081
 C   233 -- C   239       -0.06      0.00      5.48158
 C   364 -- C   390       -0.06     -0.00      5.48505
 H   590 -- Li  599       -0.02     -0.00      5.48985
 Li  599 -- Li  617       -0.14     -0.00      5.49282
 C    91 -- Li  599       -0.07      0.00      5.49822
 H   582 -- Li  607       -0.02      0.00      5.49938
 Li  613 -- Li  624       -0.11      0.00      5.50308
 H   561 -- Li  609       -0.02     -0.00      5.51222
 C   527 -- Li  627       -0.07      0.00      5.52935
 H   138 -- Li  620       -0.02     -0.00      5.53674
 Li  597 -- Li  628       -0.11     -0.00      5.53725
 C   241 -- Li  626       -0.06     -0.00      5.54545
 H   141 -- Li  605       -0.02      0.00      5.55297
 H   474 -- Li  610       -0.03     -0.00      5.56090
 H   162 -- Li  612       -0.02      0.00      5.56875
 H   370 -- Li  621       -0.02     -0.00      5.57054
 H   135 -- Li  595       -0.02      0.00      5.57155
 C   286 -- Li  623       -0.04      0.00      5.57225
 H   131 -- Li  594       -0.02      0.00      5.57437
 Li  610 -- Li  624       -0.11     -0.00      5.57612
 H   544 -- Li  596       -0.02     -0.00      5.58076
 H   157 -- Li  612       -0.02      0.00      5.58710
 H   535 -- Li  617       -0.02     -0.00      5.58736
 C   233 -- Li  626       -0.07     -0.00      5.59043
 H   553 -- Li  599       -0.02     -0.00      5.59226
 H   519 -- Li  601       -0.03     -0.00      5.59315
 H   152 -- Li  607       -0.02      0.00      5.59346
 H   401 -- Li  598       -0.02     -0.00      5.59579
 C   324 -- Li  620       -0.04      0.00      5.60603
 H   154 -- Li  607       -0.02     -0.00      5.60909
 C   238 -- Li  605       -0.06     -0.00      5.61180
 C   445 -- Li  622       -0.06      0.00      5.61492
 C   163 -- Li  619       -0.05     -0.00      5.61725
 H   369 -- Li  615       -0.01      0.00      5.62540
 C   309 -- Li  606       -0.05     -0.00      5.62968
 H   591 -- Li  612       -0.02      0.00      5.63259
 H   561 -- Li  618       -0.01     -0.00      5.64192
 C    87 -- Li  609       -0.06     -0.00      5.65530
 H   371 -- Li  604       -0.02      0.00      5.66022
 C   198 -- Li  603       -0.05     -0.00      5.66231
 C   482 -- Li  610       -0.05     -0.00      5.66789
=============================================================


============== Orbital energy and occupancy information for spin 1 =============

      Total number of orbitals:    2234
        Occupancy sum (kernel):    1079.000000026
   Occupancy sum (eigenvalues):    1079.000000026
                 HOMO-LUMO gap:       0.000319616 Eh
                 Mid-gap level:      -0.074121051 Eh

                        Orbital | Energy (Eh) | Occupancy
                            1    -1.841663908   1.0000000
                        .......   ...........   .........
                         1071    -0.098381350   0.9986060
                         1072    -0.094406553   0.9951302
                         1073    -0.092959943   0.9923264
                         1074    -0.089870499   0.9799080
                         1075    -0.089359939   0.9765263
                         1076    -0.085939618   0.9339006
                         1077    -0.082340288   0.8187561
                         1078    -0.078370657   0.5646786
                         1079    -0.077551356   0.4989813
                         1080    -0.074280859   0.2610681
                        ....... -- gap at 0K -- .........
                         1081    -0.073961243   0.2436308
                         1082    -0.073097411   0.1960400
                         1083    -0.072113219   0.1520148
                         1084    -0.071346095   0.1227895
                         1085    -0.070285234   0.0914517
                         1086    -0.069176987   0.0661443
                         1087    -0.068336139   0.0515139
                         1088    -0.065255389   0.0201463
                         1089    -0.063982829   0.0135511
                         1090    -0.062652952   0.0089481
                        .......   ...........   .........
                         2234     0.773812858   0.0000000

================================================================================

============== Orbital energy and occupancy information for spin 2 =============

      Total number of orbitals:    2234
        Occupancy sum (kernel):    1078.999999976
   Occupancy sum (eigenvalues):    1078.999999976
                 HOMO-LUMO gap:       0.003270497 Eh
                 Mid-gap level:      -0.075916107 Eh

                        Orbital | Energy (Eh) | Occupancy
                            1    -1.841663908   1.0000000
                        .......   ...........   .........
                         1070    -0.099353384   0.9989827
                         1071    -0.098381350   0.9986060
                         1072    -0.094406553   0.9951302
                         1073    -0.092959943   0.9923264
                         1074    -0.089870499   0.9799080
                         1075    -0.089359939   0.9765263
                         1076    -0.085939618   0.9339006
                         1077    -0.082340287   0.8187561
                         1078    -0.078370657   0.5646786
                         1079    -0.077551356   0.4989813
                        ....... -- gap at 0K -- .........
                         1080    -0.074280859   0.2610681
                         1081    -0.073961243   0.2436308
                         1082    -0.073097410   0.1960399
                         1083    -0.072113219   0.1520148
                         1084    -0.071346095   0.1227895
                         1085    -0.070285234   0.0914517
                         1086    -0.069176987   0.0661443
                         1087    -0.068336139   0.0515139
                         1088    -0.065255389   0.0201463
                         1089    -0.063982830   0.0135511
                        .......   ...........   .........
                         2234     0.773812858   0.0000000

================================================================================

===================== Writing canonical molecular orbitals =====================
    Spin 1
| Orbital  Energy (eV)  Norm     |
| HOMO     -2.02128502  1.000000 | Writing "38/592nano_HOMO_UP.cube" ... done
Writing "38/592nano_HOMO_UP.dx" ... done
| LUMO     -2.01258782  1.000000 | Writing "38/592nano_LUMO_UP.cube" ... done
Writing "38/592nano_LUMO_UP.dx" ... done
================================================================================

===================== Writing canonical molecular orbitals =====================
    Spin 2
| Orbital  Energy (eV)  Norm     |
| HOMO     -2.11027978  1.000000 | Writing "38/592nano_HOMO_DN.cube" ... done
Writing "38/592nano_HOMO_DN.dx" ... done
| LUMO     -2.02128502  1.000000 | Writing "38/592nano_LUMO_DN.cube" ... done
Writing "38/592nano_LUMO_DN.dx" ... done
================================================================================

================== Local Density of States (LDOS) calculation ==================
Writing "38/592nano_UP_LDOS.txt" ...  done
================================================================================

================== Local Density of States (LDOS) calculation ==================
Writing "38/592nano_DN_LDOS.txt" ...  done
================================================================================
 
=============== Density of States (DOS) calculation for UP spin ================
Writing "38/592nano_UP_DOS.txt" ...  done
================================================================================
 
============== Density of States (DOS) calculation for DOWN spin ===============
Writing "38/592nano_DN_DOS.txt" ...  done
================================================================================
 
Writing bands to file "38/592nano.val_bands" ... done
 
================ Projected Density of States (pDOS) calculation ================
 
Constructing AM resolved functions  ...... done
Writing NGWF plot files in formats: CUBE DX ...  done
 
Performing overlap integrals ...  done
 
Computing pDOS weights ...  done
 
All bands spilling parameter =   3.04 %
Occupancy-weighted spilling parameter =   0.86 %
 
 => Outputting data for OptaDOS <=
 
Writing pDOS weights to file "38/592nano.val_pdos_bin" ... done
 
Writing band gradients to file "38/592nano.val_dome_bin" ... done
 
Writing Castep output cell file to "38/592nano-out.cell" ... done
 
 => Computing Gaussian smeared pDOS for UP spin<= 
Writing "38/592nano_UP_PDOS.txt" ...  done
 
 => Computing Gaussian smeared pDOS for DOWN spin<= 
Writing "38/592nano_DN_PDOS.txt" ...  done
 
 => Computing Occupancy-weighted Gaussian smeared pDOS for UP spin<= 
Writing "38/592nano_occ_UP_PDOS.txt" ...  done
  => Band centres for UP spin channel: 
 S band centre of group 1:  -18.536149 eV
 P band centre of group 1:   -8.326469 eV
  Band centres for UP spin channel done. <= 
  => Integrated number of electrons in each AM band for UP spin channel: 
 S num electrons of group 1:  302.754178
 P num electrons of group 1:  766.995873
  Integrated number of electrons for UP spin channel done. <= 
 
 => Computing Occupancy-weighted Gaussian smeared pDOS for DOWN spin<= 
Writing "38/592nano_occ_DN_PDOS.txt" ...  done
  => Band centres for DOWN spin channel: 
 S band centre of group 1:  -18.536149 eV
 P band centre of group 1:   -8.326469 eV
  Band centres for DOWN spin channel done. <=
  => Integrated number of electrons in each AM band for DOWN spin channel: 
 S num electrons of group 1:  302.754178
 P num electrons of group 1:  766.995873
  Integrated number of electrons for DOWN spin channel done. <=
================================================================================

------------------------------ TIMING INFORMATION ------------------------------
AVERAGE TIME:   15973.413s on    160 node(s)                                    
TOTAL TIME:     15973.427s on    160 node(s)                                    
================= AVERAGE TIMINGS FROM ALL NODES (CUMULATIVE) ==================
|| TAG                                    #calls    cpu time   %total  Gflops ||
|| work_imbalance                       :     1        0.00s   0.000%  ------ ||
|| paw_tcore_density                    :     1        0.01s   0.000%  ------ ||
|| sparse_set_to_garbage                :   237        0.01s   0.000%  ------ ||
|| paw_sphere_density_on_grid           :     1        0.01s   0.000%  ------ ||
|| basis_extract_function_from_box      :   390        0.02s   0.000%  ------ ||
|| paw_dij_hartree                      :   945        0.03s   0.000%  ------ ||
|| ngwfs_initialise_from_radial         :     2        0.04s   0.000%  ------ ||
|| ewald_calculate_energy               :     1        0.12s   0.001%  ------ ||
|| density_init_guess_real              :     1        0.25s   0.002%  ------ ||
|| paw_tcore_hartree_on_grid            :     1        0.38s   0.002%  ------ ||
|| pseudo_make_structure_factor         :     1        0.51s   0.003%  ------ ||
|| paw_dataset_init                     :     3        0.52s   0.003%  ------ ||
|| sparse_init                          :     1        0.92s   0.006%  ------ ||
|| dense_normal_eigensolve              :     1        1.12s   0.007%  ------ ||
|| paw_species_calc_proj_prec_mat       :     1        2.20s   0.014%  ------ ||
|| restart_kernel_write                 :    15        2.84s   0.018%  ------ ||
|| sparse_embed_hotelling_invert_embed  :    27        5.07s   0.032%  ------ ||
|| sw_init                              :     1        7.54s   0.047%  ------ ||
|| fourier_apply_box_pair               :   977       11.22s   0.070%  2.302k ||
|| ngwf_gradient_coeffs                 :    14       13.32s   0.083%  ------ ||
|| augmentation_screen_dij              :   707       14.36s   0.090%  ------ ||
|| projectors_init_fftbox_recip         :    57       21.76s   0.136%  ------ ||
|| basis_copy_function_to_box           : 26821       36.09s   0.226%  ------ ||
|| hartree_on_grid                      :   702       38.13s   0.239%  ------ ||
|| integrals_kinetic                    :    27       38.96s   0.244%  ------ ||
|| projectors_func_ovlp_box             :    28       40.35s   0.253%  ------ ||
|| paw_dij_xc                           :   945       50.44s   0.316%  ------ ||
|| function_ops_brappd_ketppd           :    56       50.50s   0.316%  ------ ||
|| hamiltonian_energy_components        :     3       74.00s   0.463%  ------ ||
|| sparse_trace                         : 17636       75.52s   0.473%  ------ ||
|| eigenstates_pdos                     :     1       98.44s   0.616%  ------ ||
|| augmentation_density_on_grid         :   702      120.13s   0.752%  ------ ||
|| fourier_apply_cell_forward           :  6310      132.39s   0.829% 165.894 ||
|| aug_nonlocal_mat                     :   931      132.76s   0.831%  ------ ||
|| fourier_apply_cell_backward          :  6311      141.95s   0.889% 154.741 ||
|| basis_dot_function_with_box          : 5.798M     158.77s   0.994%  ------ ||
|| eigenstates_calculate                :     1      197.48s   1.236%  ------ ||
|| restart_ngwfs_tightbox_output        :    13      207.12s   1.297%  ------ ||
|| xc_energy_potential                  :   701      276.38s   1.730%  ------ ||
|| sparse_product                       : 15223      405.11s   2.536%  ------ ||
|| dense_eigensolve                     :  1342      460.84s   2.885%  ------ ||
|| basis_add_function_to_box            : 17.51M     567.95s   3.556%  ------ ||
|| integrals_locpot_mat_els_batch       :   473      591.61s   3.704%  ------ ||
|| projectors_gradient_batch            :    14      626.48s   3.922%  ------ ||
|| cell_grid_extract_box_real           : 15106      650.92s   4.075%  ------ ||
|| cell_grid_deposit_box_real           : 50633      672.73s   4.212%  ------ ||
|| projectors_grad_precond_batch        :    14      874.68s   5.476%  ------ ||
|| density_fftbox_deposit_to_cell       : 22464     1214.12s   7.601%  ------ ||
|| properties_calculate                 :     1     1367.40s   8.560%  ------ ||
|| density_batch_row_sums               :   702     1429.13s   8.947%  ------ ||
|| ngwf_gradient_build_batch            :    14     1665.10s  10.424%  ------ ||
|| edft_diag_ngwf_ham                   :  1340     1666.25s  10.431%  ------ ||
|| potential_apply_to_ngwf_batch        :   473     1796.54s  11.247%  ------ ||
|| ngwf_gradient_batch                  :    14     1806.87s  11.312%  ------ ||
|| ngwf_gradient_lnv                    :    14     1829.61s  11.454%  ------ ||
|| fourier_apply_box                    : 85136     1852.89s  11.600%  3.991k ||
|| density_fftbox_interpolate_multiply  : 22464     2125.75s  13.308%  ------ ||
|| integrals_locpot_dbl_grid            :   473     2405.94s  15.062%  ------ ||
|| edft_apply_smearing_operator         :   670     2758.50s  17.269%  ------ ||
|| density_batch_interp_deposit         :   702     3961.86s  24.803%  ------ ||
|| density_on_dbl_grid                  :   702     5507.03s  34.476%  ------ ||
|| hamiltonian_lhxc_calculate           :   697     6106.23s  38.227%  ------ ||
|| edft_calculate                       :    14    11511.20s  72.065%  ------ ||
|| ngwf_cg_optimise                     :     1    14584.64s  91.306%  ------ ||
|| total_time                           :     1    15973.41s 100.000%  ------ ||
================================================================================
Overhead of generating timer report: 
- 0 ms averaging over threads,
- 20 ms ensuring consistency across MPI ranks,
- 0 ms printing in order.

Job completed: 05-10-2020 01:51 (+0100)

