==================================================================================
It's Sun Mar 6 22:18:06 GMT 2022.
*** Starting onetep_launcher (node ruby059.cluster.local, PIDs 28194 28195 28196 28197 28198 28199 28200 28201 28202 28203 28204 28205 28206 28207 28208 28209)...
    - ONETEP arguments: 592nano.dat
    - Current directory: /scratch/joh1e19/graphite/li_int/nano/optPBE/results/force_AA/592/empty
    - Launcher executable directory: /mainfs/home/joh1e19/onetep_joh1e19/utils
    - (-e) ONETEP executable specified through command-line: /home/joh1e19/onetep_joh1e19/bin/onetep.iridis5.intel19.omp.scalapack
      ... trying /home/joh1e19/onetep_joh1e19/bin/onetep.iridis5.intel19.omp.scalapack
          -> looks OK
*** Setting up environment...
    - (-s) Process stack size: unlimited
    - (-t) OMP_NUM_THREADS: 4
    - (-o) OMP_STACKSIZE: 64M
    - (-c) Maximum core file size: 2048000
    - (-d) decfort_dump_flag: n
    - (-m) I_MPI_OFA_TRANSLATION_CACHE: 0
    - (-m) I_MPI_DAPL_TRANSLATION_CACHE: 0
    - (-m) I_MPI_DAPL_UD_TRANSLATION_CACHE: 0
*** Starting ONETEP...
    - /home/joh1e19/onetep_joh1e19/bin/onetep.iridis5.intel19.omp.scalapack 592nano.dat
=================================================================================
_________________________________________________________________________________
 +---------------------------------------------------------------+
 |                                                               |
 |        ####### #     # ####### ####### ####### ######         |
 |        #     # ##    # #          #    #       #     #        |
 |        #     # # #   # #          #    #       #     #        |
 |        #     # #  #  # #####      #    #####   ######         |
 |        #     # #   # # #          #    #       #              |
 |        #     # #    ## #          #    #       #              |
 |        ####### #     # #######    #    ####### #              |
 |                                                               |
 |        Linear-Scaling Ab Initio Total Energy Program          |
 |                                                               |
 |          Release for academic collaborators of ODG            |
 |                                             Version 6.1.3.6   |
 |                                                               |
 +---------------------------------------------------------------+
 |                                                               |
 |  Authors:                                                     |
 |  Jacek Dziedzic, Peter D. Haynes, Nicholas D. M. Hine,        |
 |  Arash A. Mostofi, Mike C. Payne and Chris-Kriton Skylaris    |
 |                                                               |
 |  Contributors:                                                |
 |  J. Aarons, L. Andrinopoulos, P. W. Avraam, R. A. Bell,       |
 |  A. Bhandari, G. A. Bramley, R. J. Charlton, S. J. Clark,     |
 |  R. J. Clements, G. C. Constantinescu, F. Corsetti,           |
 |  N. Corsini, O. Dieguez, S. M. M. Dubois, K. K. B. Duff,      |
 |  J. M. Escartin, A. Greco, H. Helal, Q. O. Hill, L. P. Lee,   |
 |  J.-H. Li, E. B. Linscott, G. Moynihan, D. D. O`Regan,        |
 |  O. K. Okan, M. J. S. Phipps, C. J. Pickard,                  |
 |  J. C. A. Prentice, M. I. J. Probert, L. E. Ratcliff,         |
 |  M. Robinson, A. Ruiz Serrano, J. S. Spencer, E. W. Tait,     |
 |  G. Teobaldi, D. Turban, V. Vitale, K. A. Wilkinson,          |
 |  C. Weber, J. C. Womack, N. Yeung and T. J. Zuehlsdorff       |
 |                                                               |
 |                                   Copyright (c) 2004-2021     |
 |                                                               |
 |  Please cite:                                                 |
 |  "The ONETEP linear-scaling density functional theory program"|
 |   J. Chem. Phys. 152(17) 174111 (2020)                        |
 |                                                               |
 |          in all publications arising from your use of ONETEP. |
 |                                                               |
 +---------------------------------------------------------------+
 |                                                               |
 |   ONETEP is based on developments described in the following  |
 |   publications:                                               |
 |                                                               |
 |  "Nonorthogonal generalized Wannier function pseudopotential  |
 |   plane-wave method".                                         |
 |   C.-K. Skylaris, A. A. Mostofi, P. D. Haynes, O. Dieguez,    |
 |   M. C. Payne.                                                |
 |   Phys. Rev. B 66 035119 (2002).                              |
 |                                                               |
 |  "Preconditioned iterative minimization for linear-scaling    |
 |   electronic structure calculations".                         |
 |   A. A. Mostofi, P. D. Haynes, C.-K. Skylaris, M. C. Payne.   |
 |   J. Chem. Phys. 119(17), pp.8842-8848 (2003).                |
 |                                                               |
 |  "Total-energy calculations on a real space grid with         |
 |   localized functions and a plane-wave basis".                |
 |   A. A. Mostofi, C.-K. Skylaris, P. D. Haynes, M. C. Payne.   |
 |   Comput. Phys. Commun. 147, pp.788-802 (2002).               |
 |                                                               |
 |  "Accurate kinetic energy evaluation in electronic structure  |
 |   calculations with localized functions on real space grids"  |
 |   C.-K. Skylaris, A. A. Mostofi, P. D. Haynes, C. J. Pickard, |
 |   M. C. Payne.                                                |
 |   Comput. Phys. Commun. 140, pp.315-322 (2001).               |
 |                                                               |
 |  "Accurate ionic forces and geometry optimization in linear-  |
 |   scaling density-functional theory with local orbitals"      |
 |   N. D. M. Hine, M. Robinson, P. D. Haynes, C.-K. Skylaris,   |
 |   M. C. Payne, and A. A. Mostofi.                             |
 |   Phys. Rev. B 83 195102 (2011).                              |
 |                                                               |
 +---------------------------------------------------------------+

Job started: 06-03-2022 22:18 (-0000)
 
Reading parameters from file "592nano.dat" ...... done

If your calculation crashes here, before "Checking processes and threads..."
is displayed, then your stack size is insufficient.
If so, use "ulimit -s unlimited" at runtime.
You can disable this check with "check_stack_size F".

Checking processes and threads...
   Determining the default number of threads...
      No default threads set at compilation time: defaulting to 1.
      OpenMP library call suggests 4 threads.
      Hybrid MPI-OpenMP compilation detected.
      Number of MPI processes > 1.
      OMP_NUM_THREADS environment variable present and
      its value matches the one obtained from the OpenMP library call.
      Using this value as default.
      Default threads: 4
      Default applies to threads_max and threads_num_fftboxes.
      Settings in the input file override this default.
   ... done

   Running with 160 MPI processes.
   There are 16 MPI processes running on the same node as the root process.
   Each MPI process is using: 
               1 threads for simulation cell FFTs.
               1 threads for parallel FFT box operations.
               4 threads for loops over batched FFT box operations.
               4 threads in other parallel regions.
... done

Basic input checks...
Resetting ngwf_cg_rotate to TRUE for EDFT calculations
... done

Reading geometry and species blocks from file "592nano.dat" ...    
  Number of PPD points along a3 set to 1.  This is 
  the default value, it may have been provided also in the input file.
... done


--------------------------------------------------------------------------------
---------------------------------- INPUT FILE ----------------------------------
--------------------------------------------------------------------------------

task : geometryoptimization                                                     
do_properties : true                                                            
xc_functional OPTPBE                                                            
cutoff_energy 830 eV                                                            
paw T                                                                           
edft T                                                                          
edft_spin_fix 3                                                                 
edft_update_scheme: pulay_mix                                                   
edft_ham_diis_size: 10                                                          
edft_trial_step: 0.1                                                            
EDFT_MAXIT 30                                                                   
geom_continuation T                                                             
read_denskern                                                                   
read_tightbox_ngwfs T                                                           
geom_disp_tol 0.03 bohr                                                         
geom_energy_tol 3E-6 hartree                                                    
geom_force_tol 0.001 "ha/bohr"                                                  
geom_max_iter 25                                                                
pdos_max_l = 2                                                                  
dos_smear  0.2 eV                                                               
popn_calculate T                                                                
PDOS_PSEUDOATOMIC T                                                             
PDOS_REDUCE_SWS F                                                               
PDOS_CONSTRUCT_BASIS F                                                          
PDOS_LOWDIN T                                                                   
PDOS_ORTH_ATOM_BLOCKS F                                                         
PDOS_LCAO_OPTIMIZE F                                                            
pdos_optados_output T                                                           
homo_plot 0                                                                     
lumo_plot 0                                                                     
homo_dens_plot -1                                                               
lumo_dens_plot -1                                                               
output_detail VERBOSE                                                           
timings_level 3                                                                 
write_xyz T                                                                     
%BLOCK SPECIES                                                                  
C C 6 4 9.0                                                                     
H H 1 1 9.0                                                                     
%ENDBLOCK SPECIES                                                               
%BLOCK SPECIES_POT                                                              
C "~/pp/paw/c_pbe_abinit.paw"                                                   
H "~/pp/paw/h_pbe_abinit.paw"                                                   
%ENDBLOCK SPECIES_POT                                                           
%BLOCK SPECIES_ATOMIC_SET                                                       
C "SOLVE conf=2s2 2p2"                                                          
H "SOLVE conf=1s1"                                                              
%ENDBLOCK SPECIES_ATOMIC_SET                                                    
%BLOCK SPECIES_LDOS_GROUPS                                                      
C                                                                               
H                                                                               
%ENDBLOCK SPECIES_LDOS_GROUPS                                                   
%BLOCK LATTICE_CART                                                             
94.486315650000      0.000000000000       0.000000000000                        
0.000000000000       94.486315650000      0.000000000000                        
0.000000000000       0.000000000000       94.486315650000                       
%ENDBLOCK LATTICE_CART                                                          
%BLOCK POSITIONS_ABS                                                            
C 42.81206709503558      41.40694408746761      31.00000207352430               
C 38.77543783564678      43.73723552390150      31.00000207352430               
C 41.46263621163803      39.07457584181574      31.00000207352430               
C 45.49680315764100      41.40327234924146      31.00000207352430               
C 37.42901917599217      41.40310605332591      31.00000207352430               
C 37.43057253102145      46.05994915782026      31.00000207352430               
C 54.90104505154862      48.38370214121115      31.00000207352430               
C 54.90070301108597      53.04362549959567      31.00000207352430               
C 53.56166751213625      46.05768904514990      31.00000207352430               
C 38.77572885349899      57.69246372342815      31.00000207352430               
C 42.81203874914089      60.02131329868520      31.00000207352430               
C 37.43067268651604      55.37015071148774      31.00000207352430               
C 53.56108547643183      55.36943072576249      31.00000207352430               
C 45.49657261103081      60.02437087585963      31.00000207352430               
C 46.84470525245133      39.06949247803378      31.00000207352430               
C 41.46588654089640      43.73534768731481      31.00000207352430               
C 34.73489873251640      46.06094693331351      31.00000207352430               
C 50.87826937576043      41.39416953759174      31.00000207352430               
C 53.55722098612176      50.71352870497203      31.00000207352430               
C 34.73248366228837      50.71572645667405      31.00000207352430               
C 41.46599236556992      57.69293615500639      31.00000207352430               
C 38.77506744928944      39.07796601082127      31.00000207352430               
C 54.90869844311628      43.72340839646927      31.00000207352430               
C 49.52989295964554      43.72951221246026      31.00000207352430               
C 37.42963900622283      50.71504804492768      31.00000207352430               
C 49.52917675337292      57.69766991942046      31.00000207352430               
C 34.73495164485315      55.37039637590843      31.00000207352430               
C 57.59608957119146      48.38562021341885      31.00000207352430               
C 50.87723191601461      60.03327337652018      31.00000207352430               
C 57.59572485401306      53.04227245555556      31.00000207352430               
C 37.42958798361238      60.02690310911905      31.00000207352430               
C 54.90769688817038      57.70399861284269      31.00000207352430               
C 50.87190288781193      55.37191382613778      31.00000207352430               
C 46.84313300015891      57.69713323714757      31.00000207352430               
C 41.46318234254250      62.35415019646270      31.00000207352430               
C 46.84449549283058      62.35826224091979      31.00000207352430               
C 46.84369613860018      43.73016605776456      31.00000207352430               
C 50.87249815160052      46.05530610026921      31.00000207352430               
C 38.77276387291390      48.38951115989731      31.00000207352430               
C 38.77281111607172      53.04024477922171      31.00000207352430               
C 49.52989484937186      39.07167133247267      31.00000207352430               
C 33.39496183411536      48.38718112735338      31.00000207352430               
C 42.81273983760301      36.74807708609206      31.00000207352430               
C 53.56423753992192      41.39963840554157      31.00000207352430               
C 34.73829835015348      41.40933081180093      31.00000207352430               
C 33.39480498683138      53.04439272847875      31.00000207352430               
C 45.49147223971202      36.74548627131695      31.00000207352430               
C 33.39789657907945      43.72758847107364      31.00000207352430               
C 58.93672566832829      50.71419199890789      31.00000207352430               
C 53.56293929794489      60.02739443796044      31.00000207352430               
C 49.52937706436209      62.35599645907050      31.00000207352430               
C 38.77579121446731      62.35182772282401      31.00000207352430               
C 50.86981662996239      50.71362319128768      31.00000207352430               
C 42.80933833023961      55.36602543894647      31.00000207352430               
C 42.80943470628157      46.06189179647001      31.00000207352430               
C 57.59813614478843      43.73269073211873      31.00000207352430               
C 58.93571277502452      46.05311779719875      31.00000207352430               
C 33.39797972703722      57.70367924909580      31.00000207352430               
C 34.73902589478399      60.02154951447432      31.00000207352430               
C 58.93499089957296      55.37522840609078      31.00000207352430               
C 49.52767253122776      53.04256914258671      31.00000207352430               
C 45.49790486808148      55.36845562698498      31.00000207352430               
C 57.59709679531630      57.69506398683482      31.00000207352430               
C 49.52805992512193      48.38450149544155      31.00000207352430               
C 41.46274581576419      53.03990840793801      31.00000207352430               
C 42.81356186854917      64.68042029530251      31.00000207352430               
C 41.46275337466944      48.38825071244654      31.00000207352430               
C 45.49822423182837      46.05873784325362      31.00000207352430               
C 45.49203348842699      64.68245930999423      31.00000207352430               
C 37.41755231672488      36.72819905500561      31.00000207352430               
C 46.84052139839434      53.04160160271445      31.00000207352430               
C 42.80694782645367      50.71396712147664      31.00000207352430               
C 46.84084454159387      48.38558997779784      31.00000207352430               
C 41.43814346889524      34.40464638260389      31.00000207352430               
C 33.39456688131594      39.04774550762377      31.00000207352430               
C 50.89172422710900      36.72118628065807      31.00000207352430               
C 54.91821699455486      39.04453297289167      31.00000207352430               
C 30.67837065505171      48.39194890684109      31.00000207352430               
C 46.86798479090117      34.40046063882059      31.00000207352430               
C 30.67819680023091      53.03989517985381      31.00000207352430               
C 30.67841600848322      43.74797483853828      31.00000207352430               
C 45.49614553288407      50.71358917621404      31.00000207352430               
C 61.65045013257512      50.71463986404407      31.00000207352430               
C 38.80400104886779      34.44243146023232      31.00000207352430               
C 34.74394296265042      36.78588484043625      31.00000207352430               
C 37.41887701487030      64.70135657312424      31.00000207352430               
C 58.93988340099732      41.36771903838867      31.00000207352430               
C 54.91659749910461      62.38223719865281      31.00000207352430               
C 50.89117242702560      64.70629631770642      31.00000207352430               
C 61.65271213497180      46.07161821780302      31.00000207352430               
C 30.67854828932514      57.68355555358865      31.00000207352430               
C 61.65199970815179      55.35779001167441      31.00000207352430               
C 33.39592937398762      62.38271529941001      31.00000207352430               
C 41.43973650817711      67.02352785559115      31.00000207352430               
C 58.93843398091525      60.06010182098584      31.00000207352430               
C 46.86870855607906      67.02711455613323      31.00000207352430               
C 49.49534309346497      34.43289779098323      31.00000207352430               
C 29.39398793080025      46.03925665469290      31.00000207352430               
C 62.93711942566532      48.37112601259814      31.00000207352430               
C 53.54686906537913      36.77070088951130      31.00000207352430               
C 62.93670746532908      53.05841449772121      31.00000207352430               
C 57.59828354344084      39.10870618875484      31.00000207352430               
C 29.39478539530434      50.71583984025283      31.00000207352430               
C 42.86393630287481      32.09366794908887      31.00000207352430               
C 34.74546797178500      64.64422636722962      31.00000207352430               
C 38.80577928132832      66.98653457328787      31.00000207352430               
C 29.39366856705335      55.39238334156019      31.00000207352430               
C 30.67980117787065      39.12794927180012      31.00000207352430               
C 45.44167417191185      32.08952944846340      31.00000207352430               
C 29.38875149918693      41.35839701848665      31.00000207352430               
C 57.59631255889639      62.31816413828422      31.00000207352430               
C 53.54580137001230      64.65584629432826      31.00000207352430               
C 49.49582686340109      66.99486637660189      31.00000207352430               
H 37.76880330542745      32.65215010472763      31.00000207352430               
H 33.71120564286960      34.99401800455495      31.00000207352430               
C 62.94058518372336      43.68086876743734      31.00000207352430               
C 61.65432218179046      41.44715179422932      31.00000207352430               
C 62.93948536300918      57.74886638469224      31.00000207352430               
C 29.38951305889107      60.07286314277752      31.00000207352430               
C 30.68138665824726      62.30275342020172      31.00000207352430               
C 61.65280284183482      59.98221486126923      31.00000207352430               
C 42.86550666544091      69.33406031369633      31.00000207352430               
C 45.44317083515175      69.33760166080688      31.00000207352430               
H 65.00480126556053      53.05656634538709      31.00000207352430               
H 65.00513952657056      48.37310077659522      31.00000207352430               
H 50.52466000861925      32.64180196343764      31.00000207352430               
H 41.82010628963668      30.31288246830700      31.00000207352430               
H 29.65760097201112      37.33486167272063      31.00000207352430               
H 27.32827707544950      46.03680001048600      31.00000207352430               
H 37.77197048672804      68.77682159797151      31.00000207352430               
H 33.71384181107624      66.43584186951128      31.00000207352430               
H 58.63305231900814      37.32054888562597      31.00000207352430               
H 27.32796716033416      55.39479274260927      31.00000207352430               
H 46.48199874283935      30.30661046667416      31.00000207352430               
H 54.57742375126844      34.98320499059196      31.00000207352430               
H 27.32460344749703      41.36985064966974      31.00000207352430               
H 27.33199416710717      50.71580960463182      31.00000207352430               
H 58.63086023648505      64.10593593724526      31.00000207352430               
H 50.52530629501829      68.78594708633698      31.00000207352430               
H 65.00466709499231      43.69322001861910      31.00000207352430               
H 62.67642223215540      39.65383553826595      31.00000207352430               
H 54.57640707851205      66.44292456373240      31.00000207352430               
H 65.00363341469910      57.73740330487760      31.00000207352430               
H 29.66039209777542      64.09542716921867      31.00000207352430               
H 27.32546516269576      60.06214839458281      31.00000207352430               
H 41.82256104411727      71.11446406976295      31.00000207352430               
H 62.67435298184266      61.77612071184225      31.00000207352430               
H 46.48389980751023      71.11995561442852      31.00000207352430               
C 45.23274981019919      41.24667261940945      37.49500463938950               
C 37.17584120348167      45.89858542795317      37.49500463938950               
C 41.20268923947437      43.56949396772804      37.49500463938950               
C 42.54925340805510      41.24863793477497      37.49500463938950               
C 50.60926872483119      41.25169929140203      37.49500463938950               
C 38.51906244621470      43.57564313715055      37.49500463938950               
C 49.26190520202007      43.58280331015050      37.49500463938950               
C 54.63964676957659      43.57827741563086      37.49500463938950               
C 46.57958798909529      43.57864780198822      37.49500463938950               
C 53.29545042806605      45.91118423328194      37.49500463938950               
C 37.18485897744731      50.55606348048867      37.49500463938950               
C 38.52203876515767      48.23089320236302      37.49500463938950               
C 46.58389656508894      38.92446921159521      37.49500463938950               
C 37.18500637609972      55.21385144813951      37.49500463938950               
C 34.49186103140146      50.55862783909541      37.49500463938950               
C 54.63961842368189      48.23175302783545      37.49500463938950               
C 53.29450178545693      41.25476064802911      37.49500463938950               
C 34.49203866567488      55.21272139180433      37.49500463938950               
C 57.33264282589612      48.23196278745618      37.49500463938950               
C 34.48869007064824      45.90857641097000      37.49500463938950               
C 50.60736954988663      45.90963654743160      37.49500463938950               
C 38.52260190359895      57.53838110904505      37.49500463938950               
C 49.26023279423307      38.92648743929749      37.49500463938950               
C 42.55016803559059      45.90328517729360      37.49500463938950               
C 38.52715803373960      52.88474298037757      37.49500463938950               
C 37.17687488377489      59.87109517461220      37.49500463938950               
C 57.32816606426062      43.58366124589661      37.49500463938950               
C 57.33590827296499      52.88381323503157      37.49500463938950               
C 54.64105461567976      52.88370174117910      37.49500463938950               
C 54.63976015315536      57.53573549220685      37.49500463938950               
C 33.15210743645279      52.88594862576527      37.49500463938950               
C 46.58027584947323      62.18943598184270      37.49500463938950               
C 42.55097683845256      59.86499135862120      37.49500463938950               
C 58.66748502215729      45.90042791110835      37.49500463938950               
C 33.15267246462037      48.22772602106243      37.49500463938950               
C 53.29554302465539      59.85640822170756      37.49500463938950               
C 45.23396301449213      45.90410342878713      37.49500463938950               
C 49.26235684660888      62.18521622298577      37.49500463938950               
C 41.20912564729646      48.22773169024138      37.49500463938950               
C 41.20394590747253      62.19911138056526      37.49500463938950               
C 50.60761710403363      59.85811653429452      37.49500463938950               
C 53.29918263753422      50.56011883315637      37.49500463938950               
C 58.67193343789810      50.55686094499276      37.49500463938950               
C 41.20972280081136      57.54081885598883      37.49500463938950               
C 57.33278644509591      57.53586399359614      37.49500463938950               
C 53.29929980056563      55.20738102524380      37.49500463938950               
C 45.23462441870168      59.86393122215961      37.49500463938950               
C 41.18732576454968      38.90017677984160      37.49500463938950               
C 33.15314678592494      57.54410509004713      37.49500463938950               
C 45.23375325487140      64.52180233776826      37.49500463938950               
C 37.16568014509667      41.22229326024544      37.49500463938950               
C 34.48977855300453      59.86248747125649      37.49500463938950               
C 38.52049674848627      62.19346109888939      37.49500463938950               
C 58.67192965844549      55.21084111412290      37.49500463938950               
C 42.55049495824274      64.51994851625521      37.49500463938950               
C 49.26528970184665      48.23485973789401      37.49500463938950               
C 41.21231172586018      52.88431968168346      37.49500463938950               
C 49.26555048407785      57.53290090273736      37.49500463938950               
C 45.20669615352186      36.58071536490752      37.49500463938950               
C 54.65013475061373      38.90586485604373      37.49500463938950               
C 54.63938976679802      62.18953046815835      37.49500463938950               
C 50.61117923813363      50.55960293787292      37.49500463938950               
C 50.60929896045220      64.51658291369175      37.49500463938950               
C 42.55270026885002      55.21243226367844      37.49500463938950               
C 46.57888123145424      57.53634965325858      37.49500463938950               
C 50.61140033611227      55.20810479042167      37.49500463938950               
C 46.57855997798103      48.23148468669899      37.49500463938950               
C 42.55238279482943      50.55587072840474      37.49500463938950               
C 33.14740957683867      43.54412628170233      37.49500463938950               
C 38.53412356492931      38.94920572903239      37.49500463938950               
C 50.63195299949245      36.58305673580933      37.49500463938950               
C 42.58244834046926      36.61282748414433      37.49500463938950               
C 58.66737919748377      59.86764453436466      37.49500463938950               
C 58.67092054459434      41.22328536655976      37.49500463938950               
C 34.48677766761949      41.28740755981248      37.49500463938950               
C 46.58426506171997      66.84433644768728      37.49500463938950               
C 45.23755160476052      55.21089780591228      37.49500463938950               
C 49.26796744403217      52.88392472888403      37.49500463938950               
C 30.43922390041525      52.88654011010123      37.49500463938950               
C 45.23739664720286      50.55713873476076      37.49500463938950               
C 61.38681819410115      50.56218052456385      37.49500463938950               
C 53.29435816625713      64.51333825361235      37.49500463938950               
C 46.58079552420930      52.88396819258922      37.49500463938950               
C 61.38570703502909      45.92187441503458      37.49500463938950               
C 30.43675591785047      48.24531748331015      37.49500463938950               
C 57.32766150733506      62.18426191119770      37.49500463938950               
C 57.32258192300571      38.96219192825533      37.49500463938950               
C 30.43707339187105      57.52782131840800      37.49500463938950               
C 49.26043688467487      66.84210657063792      37.49500463938950               
C 61.38664811873296      55.20613380587722      37.49500463938950               
C 53.26471402958510      36.62069819423797      37.49500463938950               
C 37.16772104951471      64.54711333200459      37.49500463938950               
C 33.14937300247787      62.22742514991293      37.49500463938950               
C 41.18891691410523      66.86864777670402      37.49500463938950               
C 46.62959770624254      34.26961787863478      37.49500463938950               
C 29.15247901827254      55.22950216146377      37.49500463938950               
C 62.66949260576563      48.21013077936209      37.49500463938950               
C 29.15231650180962      50.54392765810658      37.49500463938950               
C 62.66974204963896      52.88420251865205      37.49500463938950               
C 49.20580678669236      34.27215578107314      37.49500463938950               
C 30.43407439621232      43.62235528188159      37.49500463938950               
C 34.48906990563716      64.48347490868798      37.49500463938950               
C 61.38532342058755      41.30357038896757      37.49500463938950               
C 38.53624572757881      66.81950544393446      37.49500463938950               
C 61.38548404732416      59.84663644694304      37.49500463938950               
H 37.50008989289778      37.15925507563247      37.49500463938950               
H 41.54951826860452      34.82070931466340      37.49500463938950               
C 62.67436243047424      43.53353436571797      37.49500463938950               
C 45.20701362754244      69.18809218410127      37.49500463938950               
H 33.45080702611713      39.49699770291851      37.49500463938950               
C 62.66910521187149      57.55820811752106      37.49500463938950               
C 29.14862208686770      45.85473621858632      37.49500463938950               
C 42.58303604535260      69.15632021560081      37.49500463938950               
H 58.35564238598604      37.16863189759758      37.49500463938950               
C 29.14973324593975      59.91906965652033      37.49500463938950               
C 30.43622679448282      62.15075517394190      37.49500463938950               
H 54.30062042039282      34.82904111797743      37.49500463938950               
C 54.64946011831999      66.86196948391387      37.49500463938950               
H 45.58499668466870      32.48606205907806      37.49500463938950               
H 27.08204384713928      55.22798849068706      37.49500463938950               
C 58.66966009714356      64.54427685280878      37.49500463938950               
C 50.63194544058719      69.18512720351619      37.49500463938950               
H 64.73729538814489      48.20787066669175      37.49500463938950               
H 29.41127514711157      41.82652380019563      37.49500463938950               
H 27.08193046356050      50.54585895839847      37.49500463938950               
H 64.73603116124150      52.88424598235725      37.49500463938950               
H 50.24543404861036      32.48708062156077      37.49500463938950               
H 62.41063978513722      39.51013319052017      37.49500463938950               
H 33.45417451840690      66.27441010949698      37.49500463938950               
H 37.50263346451507      68.60914051304010      37.49500463938950               
H 64.74033973723513      43.54624277517289      37.49500463938950               
H 64.73675870587201      57.56026413974959      37.49500463938950               
H 27.08256541160167      45.86533569347593      37.49500463938950               
H 27.08365011450534      59.91017660449135      37.49500463938950               
C 62.67341000841250      62.23490846611242      37.49500463938950               
H 41.54980928645672      70.94826075080832      37.49500463938950               
C 46.62976589188438      71.49849236136451      37.49500463938950               
H 29.41537774293710      63.94778474211032      37.49500463938950               
C 53.26433230486987      69.14707756420393      37.49500463938950               
C 57.32136115980752      66.80512651641884      37.49500463938950               
C 61.38360187991641      64.46436599621094      37.49500463938950               
C 49.20581056614498      71.49559541092671      37.49500463938950               
H 64.73912086376326      62.22333956162422      37.49500463938950               
H 45.58557305119417      73.28190645144778      37.49500463938950               
H 54.30017066553032      70.93777088004487      37.49500463938950               
H 58.35359959184170      68.59783805996204      37.49500463938950               
H 62.40683009689022      66.25798460838438      37.49500463938950               
H 50.24479154166394      73.27995436416644      37.49500463938950               
H 29.57403727445027      37.12717130229036      43.99000909498100               
H 41.73406705060579      30.10642608915913      43.99000909498100               
H 33.62609048000576      34.78695124380798      43.99000909498100               
H 37.68160566416668      32.44456366924458      43.99000909498100               
H 46.39677208612306      30.10191909190262      43.99000909498100               
H 27.24033677174773      41.16338671161662      43.99000909498100               
C 42.77649488691967      31.88857028316004      43.99000909498100               
C 30.59779650451802      38.92017953286471      43.99000909498100               
H 62.57170871769945      39.43452713046337      43.99000909498100               
C 34.66023942534239      36.57871603446837      43.99000909498100               
C 38.71752150360596      34.23553099540089      43.99000909498100               
C 45.35260381187491      31.88499114152322      43.99000909498100               
H 50.43228640698718      32.43299098530377      43.99000909498100               
H 64.90330595501561      43.47200109751407      43.99000909498100               
C 29.30713799918108      41.14938006018465      43.99000909498100               
H 64.90408830170919      57.52042681934525      43.99000909498100               
H 27.24348127633257      45.82431918385227      43.99000909498100               
H 27.24048794985277      59.83412456902468      43.99000909498100               
H 54.48179793065170      34.77187311755655      43.99000909498100               
H 58.53402877048062      37.10900347351718      43.99000909498100               
H 29.57241777900003      63.86989211321475      43.99000909498100               
H 27.24533887729825      50.49796951417444      43.99000909498100               
H 64.90380862221488      52.83798359248870      43.99000909498100               
H 41.73555237548781      70.89149715181840      43.99000909498100               
H 62.57391780775935      61.55809731793251      43.99000909498100               
H 27.24302396256482      55.17273289329494      43.99000909498100               
H 64.90372169480447      48.15410606336059      43.99000909498100               
C 33.31209733529031      38.83983592894120      43.99000909498100               
C 41.35022962136186      34.19858684598174      43.99000909498100               
H 46.39749585130094      70.89368734461516      43.99000909498100               
C 37.33224062232451      36.52077135653285      43.99000909498100               
H 37.68293036231210      68.55272273396547      43.99000909498100               
C 61.55096360110094      41.23166252330530      43.99000909498100               
C 62.83726628728640      43.46357858733703      43.99000909498100               
H 33.62646086636312      66.21179402811569      43.99000909498100               
C 49.40089457234122      34.22598787752024      43.99000909498100               
C 62.83821304016921      57.52890602131168      43.99000909498100               
C 29.31229506228926      45.82506751547223      43.99000909498100               
H 58.53489237540567      63.88536141281297      43.99000909498100               
C 29.30733453071764      59.84731863814204      43.99000909498100               
C 46.77658817777292      34.19468078169277      43.99000909498100               
H 50.43321804205949      68.56121327428976      43.99000909498100               
H 54.48269744037669      66.22239917218424      43.99000909498100               
C 30.59667967626704      43.53684516621835      43.99000909498100               
C 30.59756973736045      62.07668357165122      43.99000909498100               
C 53.44931194447051      36.56240391693456      43.99000909498100               
C 61.55256230956173      59.76120003060601      43.99000909498100               
C 57.49782002346283      38.89905239268537      43.99000909498100               
C 42.77719219592917      69.10775802880931      43.99000909498100               
C 29.31253505753101      50.49815281762680      43.99000909498100               
C 62.83394414842815      52.83903617004504      43.99000909498100               
C 29.31192845538454      55.17138551843377      43.99000909498100               
C 62.83374761689159      48.15328025296181      43.99000909498100               
C 45.35331245924228      69.11035262303706      43.99000909498100               
C 50.79618344417634      36.51331449650176      43.99000909498100               
C 58.83766432527453      41.15509081310255      43.99000909498100               
C 38.71822448179440      66.76060834393716      43.99000909498100               
C 54.81872857335435      38.83475256515923      43.99000909498100               
C 30.59638676868851      48.17651065852751      43.99000909498100               
C 61.54972205091329      45.85472676995477      43.99000909498100               
C 34.66021863835294      64.41851934613121      43.99000909498100               
C 42.72295516101975      36.54078922736647      43.99000909498100               
C 61.55028896880719      55.13791279625161      43.99000909498100               
C 34.65526377596026      41.19911576701650      43.99000909498100               
C 30.59663621256183      57.45933763682489      43.99000909498100               
C 45.40501537116596      50.49753298739613      43.99000909498100               
C 30.59610519946788      52.81987812468385      43.99000909498100               
C 38.68863325745912      38.86900007512973      43.99000909498100               
C 61.54746571769557      50.49627253994537      43.99000909498100               
C 46.74862589751947      52.82414512669860      43.99000909498100               
C 57.49923920792389      62.09463975107735      43.99000909498100               
C 42.71757699993296      50.49767660659593      43.99000909498100               
C 46.74861266943527      48.17074699327286      43.99000909498100               
C 45.39966933542648      36.53827400164386      43.99000909498100               
C 33.31206520994299      62.15715756669032      43.99000909498100               
C 49.40171660328738      66.76826173550481      43.99000909498100               
C 41.35108755710797      66.79721990152522      43.99000909498100               
C 33.31545915840114      43.51568779041801      43.99000909498100               
C 53.45044955971093      64.43154145015410      43.99000909498100               
C 58.83914776043022      59.83818937032394      43.99000909498100               
C 45.40714887217334      55.14968201172897      43.99000909498100               
C 49.43404982050281      52.82539045633887      43.99000909498100               
C 41.37400048865309      48.17356079575292      43.99000909498100               
C 45.40710918792076      45.84525168222137      43.99000909498100               
C 37.33262423676604      64.47547569720504      43.99000909498100               
C 41.37408552633718      52.82192469828083      43.99000909498100               
C 49.43394399582928      48.16923899167509      43.99000909498100               
C 46.77726281006667      66.79993921768963      43.99000909498100               
C 41.37416867429495      38.86594627740793      43.99000909498100               
C 37.34383976243370      41.19296470786769      43.99000909498100               
C 42.72012813045551      45.84868720465842      43.99000909498100               
C 42.72024718321322      55.14653750714415      43.99000909498100               
C 50.77445915048209      50.49720795447030      43.99000909498100               
C 49.43506838298551      38.86225753164495      43.99000909498100               
C 54.81997390299461      62.15891501216142      43.99000909498100               
C 33.31160978590155      48.17162760573472      43.99000909498100               
C 53.46602468398268      41.18863912433723      43.99000909498100               
C 57.49711515554809      43.51987164447498      43.99000909498100               
C 50.79712452788022      64.48083307130238      43.99000909498100               
C 58.83378093770131      45.83817087772657      43.99000909498100               
C 46.75138300821013      38.86018639160590      43.99000909498100               
C 46.75129419107342      43.51772680510974      43.99000909498100               
C 38.68573252756867      48.17453022535149      43.99000909498100               
C 34.65126322535564      45.84680692697698      43.99000909498100               
C 33.31148506396490      52.82490290695011      43.99000909498100               
C 50.77694225085737      45.84092231923830      43.99000909498100               
C 38.68577788100019      52.82152974548141      43.99000909498100               
C 50.77730129885685      55.15340477256559      43.99000909498100               
C 41.37748136452164      43.52361897175366      43.99000909498100               
C 50.78220513863908      41.18297939402980      43.99000909498100               
C 46.75158898837826      57.47687051755691      43.99000909498100               
C 33.31550640155896      57.48060083729877      43.99000909498100               
C 58.83445368026874      55.15463498439534      43.99000909498100               
C 42.72260745137817      41.19658731320971      43.99000909498100               
C 38.68904332806905      43.52550491861404      43.99000909498100               
C 49.43534428302721      43.51695768650033      43.99000909498100               
C 45.40509662939742      41.19242424614216      43.99000909498100               
C 58.83479950018401      50.49634434954526      43.99000909498100               
C 37.34340890483433      50.49815848680574      43.99000909498100               
C 34.65533369583384      59.79710672027932      43.99000909498100               
C 37.34469391872717      45.84629670087247      43.99000909498100               
C 34.64816407420232      50.49827753956346      43.99000909498100               
C 54.80984685968324      43.51094268764606      43.99000909498100               
C 53.45990952963382      50.49682622975508      43.99000909498100               
C 49.43573923582663      57.47753381149278      43.99000909498100               
C 42.72367892619764      64.45429375496262      43.99000909498100               
C 41.37767033715294      57.47168510855404      43.99000909498100               
C 57.49808836459926      57.47339531086730      43.99000909498100               
C 34.65130857878715      55.14948359046611      43.99000909498100               
C 53.46427668714316      45.84347722921347      43.99000909498100               
C 57.49496086755126      48.16947709719053      43.99000909498100               
C 38.68904899724799      62.12666494290377      43.99000909498100               
C 37.34471281599030      55.14980484393932      43.99000909498100               
C 57.49529723883497      52.82348750194167      43.99000909498100               
C 54.80197803931591      48.16794074969807      43.99000909498100               
C 45.40041955677274      64.45620048881244      43.99000909498100               
C 53.46467919884784      55.15025648852813      43.99000909498100               
C 54.80220291674717      52.82541313305462      43.99000909498100               
C 38.68918505754252      57.47026970354560      43.99000909498100               
C 45.40551614863890      59.80217496625079      43.99000909498100               
C 37.34407030904387      59.80291384923917      43.99000909498100               
C 53.46695631905500      59.80516451327795      43.99000909498100               
C 42.72293059457768      59.79842574924580      43.99000909498100               
C 49.43584695022646      62.13202609645374      43.99000909498100               
C 41.37462409833638      62.12933512618402      43.99000909498100               
C 50.78297047779584      59.81124187310055      43.99000909498100               
C 54.81066889062940      57.48258882938006      43.99000909498100               
C 46.75211433229327      62.13413503101904      43.99000909498100               
H 45.69738926456037      32.24206092266902      50.48501166084619               
H 29.50390496922189      41.59212436318294      50.48501166084619               
H 50.35766222231280      32.24663217062017      50.48501166084619               
H 62.51838930747784      39.26460326552391      50.48501166084619               
H 64.85569540798556      43.29856423135875      50.48501166084619               
H 27.18149369151322      45.63122160513652      50.48501166084619               
H 29.50498778239923      63.71100424994322      50.48501166084619               
H 27.18044867286213      59.67088844550694      50.48501166084619               
H 37.60525615936854      36.92129917369872      50.48501166084619               
H 41.65440296585465      34.57964103349214      50.48501166084619               
H 33.54942728063966      39.25748277677653      50.48501166084619               
H 64.85180824095971      52.64832531566259      50.48501166084619               
H 37.60373681941289      68.37879453896876      50.48501166084619               
H 64.85545352301750      61.99835474110287      50.48501166084619               
H 45.69895773740016      73.05790428860918      50.48501166084619               
H 64.85532313190191      47.96787386033996      50.48501166084619               
H 33.54994884510204      66.04365973399466      50.48501166084619               
H 54.41086060201399      34.58739080110175      50.48501166084619               
H 58.46484510786137      36.92588553946037      50.48501166084619               
H 64.85432913586126      57.32842339216471      50.48501166084619               
H 62.51833828486738      66.03231570693772      50.48501166084619               
H 41.65585616538934      70.72221579382537      50.48501166084619               
H 50.35873180740595      73.05306280979526      50.48501166084619               
H 27.18024836187295      54.99151791363532      50.48501166084619               
H 27.18030316393602      50.30859091684265      50.48501166084619               
C 46.73835067325536      34.02471912222706      50.48501166084619               
C 49.31601295323988      34.02809039396946      50.48501166084619               
C 30.52886606522471      43.38368506340153      50.48501166084619               
C 61.49869865816196      41.05863761748622      50.48501166084619               
C 29.24455326084683      45.61785179147204      50.48501166084619               
C 62.79121476446458      43.28859592505768      50.48501166084619               
C 29.24341942505902      59.68377448923528      50.48501166084619               
C 30.52799868084704      61.91797712210574      50.48501166084619               
H 58.46726206781570      68.37083501173839      50.48501166084619               
H 54.41164294870757      70.71323581438598      50.48501166084619               
C 42.68620865056315      36.36934602247137      50.48501166084619               
C 38.63611887064685      38.70830374377667      50.48501166084619               
C 34.58460234736425      41.04546433535830      50.48501166084619               
C 62.79096721031758      62.00763140757339      50.48501166084619               
C 46.73944860424321      71.27503066025143      50.48501166084619               
C 61.49863629719364      64.23759349459749      50.48501166084619               
C 53.37547766539497      36.37655532835547      50.48501166084619               
C 49.31704096435416      71.27123986926756      50.48501166084619               
C 57.43451718912964      38.71827393980406      50.48501166084619               
C 62.78901323330994      47.97044199839932      50.48501166084619               
C 62.78831403457412      52.64810610741029      50.48501166084619               
C 34.58429432197522      64.25514338286632      50.48501166084619               
C 38.63585241923672      66.59228507718483      50.48501166084619               
C 29.24758438185288      50.30701110564498      50.48501166084619               
C 29.24733682770588      54.99391408660021      50.48501166084619               
C 62.78813829002702      57.32556801570576      50.48501166084619               
C 42.68653368348899      68.93145444783717      50.48501166084619               
C 45.31338742912721      36.33590353591021      50.48501166084619               
C 50.74197397286130      36.33887985485318      50.48501166084619               
C 33.24305729187085      43.30403309930858      50.48501166084619               
C 58.78417672941105      40.97970941857115      50.48501166084619               
C 30.53210505612519      48.00794928625975      50.48501166084619               
C 61.50338706914453      45.67915829251839      50.48501166084619               
C 30.53110917035823      57.29325369575346      50.48501166084619               
C 41.29118245068554      38.65805970056662      50.48501166084619               
C 33.24237888012449      61.99656517028447      50.48501166084619               
C 37.26492967848143      40.98165016749460      50.48501166084619               
C 54.76169396120137      38.66194119841352      50.48501166084619               
C 57.43510678373930      66.57874707787848      50.48501166084619               
C 53.37668520050898      68.92274469926053      50.48501166084619               
C 30.53350534332312      52.65049094201729      50.48501166084619               
C 46.68733373198330      52.65003362824955      50.48501166084619               
C 61.50293731428204      59.61682148596570      50.48501166084619               
C 61.50482704059502      50.32356510814687      50.48501166084619               
C 45.31383907371602      68.96391616644189      50.48501166084619               
C 37.26475393393432      64.31854370066746      50.48501166084619               
C 61.50433949120628      54.97224837442166      50.48501166084619               
C 41.29111631026458      66.64255935601587      50.48501166084619               
C 58.78413704515848      64.31675035039643      50.48501166084619               
C 50.74309458056491      68.96044851865753      50.48501166084619               
C 45.34290495413627      54.97811219517092      50.48501166084619               
C 49.37625742809832      52.64968780833426      50.48501166084619               
C 45.34298810209404      50.32194372297031      50.48501166084619               
C 54.76232324006360      66.63652545989845      50.48501166084619               
C 46.68539298305986      57.30488496120998      50.48501166084619               
C 50.72043865179836      54.97540043791176      50.48501166084619               
C 46.69057083315748      38.68055689232289      50.48501166084619               
C 42.65594279393415      54.97924981041133      50.48501166084619               
C 50.72046321824042      50.32372951433610      50.48501166084619               
C 49.36876277354097      38.68251653850947      50.48501166084619               
C 34.58529965637374      45.66895943960712      50.48501166084619               
C 42.65604105970242      50.32099319063488      50.48501166084619               
C 46.68544778512293      47.99507080143665      50.48501166084619               
C 33.24864332285208      47.98948666018173      50.48501166084619               
C 57.44240490676010      43.34160085841102      50.48501166084619               
C 58.78384413757998      45.65951269776843      50.48501166084619               
C 33.24780050491648      57.31100767446410      50.48501166084619               
C 34.58468549532201      59.63149710051245      50.48501166084619               
C 49.37377054827042      57.30168187510944      50.48501166084619               
C 41.31449978366165      52.65011488648101      50.48501166084619               
C 49.37384613732293      47.99757279907506      50.48501166084619               
C 53.40589847958165      41.01162878572404      50.48501166084619               
C 42.65348803945356      41.00789090707692      50.48501166084619               
C 38.61933999071373      43.33635686789244      50.48501166084619               
C 58.78336414709646      59.63666361225219      50.48501166084619               
C 33.24706540138072      52.65022827005980      50.48501166084619               
C 46.69092043252537      66.61893399765074      50.48501166084619               
C 58.78788059298453      50.31916771501651      50.48501166084619               
C 57.44211388890790      61.95464726120949      50.48501166084619               
C 38.61911133382986      61.96370471942772      50.48501166084619               
C 49.36925032292972      66.61651136851748      50.48501166084619               
C 58.78745918401673      54.97678371757286      50.48501166084619               
C 42.65345402437993      64.29215556243273      50.48501166084619               
C 41.31145543457141      57.30835260899434      50.48501166084619               
C 45.34006091603520      59.63358335836201      50.48501166084619               
C 53.41007666445969      54.97425715349238      50.48501166084619               
C 53.41010690008070      50.32347818073646      50.48501166084619               
C 41.31167653255003      47.99174299339946      50.48501166084619               
C 50.71913474064238      41.00900395587528      50.48501166084619               
C 45.34018941742449      45.66630626386367      50.48501166084619               
C 45.33856425279531      41.00510922994419      50.48501166084619               
C 37.27499058137184      45.65993410673623      50.48501166084619               
C 54.75227745498369      43.33651749462904      50.48501166084619               
C 34.58817770954845      50.32213836478054      50.48501166084619               
C 34.58776574921221      54.97851092742294      50.48501166084619               
C 41.30550468641177      43.33049304714321      50.48501166084619               
C 42.65395102240024      59.63418051187691      50.48501166084619               
C 57.44755252123671      47.99316406758683      50.48501166084619               
C 54.75324499485595      52.64874294517777      50.48501166084619               
C 42.65407763406321      45.66591886996951      50.48501166084619               
C 37.27454838541460      59.64015204702599      50.48501166084619               
C 53.40603265014986      64.28628796223087      50.48501166084619               
C 38.62718046518637      52.65021126252297      50.48501166084619               
C 57.45025105041167      52.64801917999989      50.48501166084619               
C 50.71710139512960      45.67066019328882      50.48501166084619               
C 41.30538374392773      61.96947783331394      50.48501166084619               
C 50.71701824717183      59.62829779386455      50.48501166084619               
C 57.44724071639506      57.30293287392865      50.48501166084619               
C 45.33859637814263      64.29442323400832      50.48501166084619               
C 46.68675925518416      43.33899492582539      50.48501166084619               
C 38.62230875075146      47.99430735200620      50.48501166084619               
C 38.62205741715182      57.30590163396637      50.48501166084619               
C 54.75202801111038      47.99354201284944      50.48501166084619               
C 49.37099454031662      43.34212620232604      50.48501166084619               
C 37.28342631963308      50.32036958095157      50.48501166084619               
C 53.40691137288541      45.67121766255116      50.48501166084619               
C 37.28312396342299      54.97988475845250      50.48501166084619               
C 46.68669689421583      61.96059611964283      50.48501166084619               
C 54.75199777548938      61.96095516764230      50.48501166084619               
C 50.71927835984217      64.28974049220471      50.48501166084619               
C 54.75188061245797      57.30385695009571      50.48501166084619               
C 49.37096052524299      61.95689225606934      50.48501166084619               
C 53.40676586395931      59.62646286961463      50.48501166084619               
%ENDBLOCK POSITIONS_ABS                                                         

--------------------------------------------------------------------------------
-------------------------------- END INPUT FILE --------------------------------
--------------------------------------------------------------------------------


 
<<<<<<<<<<<<<<<<<<<<<<<<<<<<<<<<< Full system >>>>>>>>>>>>>>>>>>>>>>>>>>>>>>>>>>
<<<<<<<<<<<<<<<<<<<<<<<<<<< PAW Dataset information >>>>>>>>>>>>>>>>>>>>>>>>>>>
File: ~/pp/paw/c_pbe_abinit.paw; rc = 1.25 bohr; shape type =  3; rshape = 1.25 bohr;
  Atomic number:  6;  ionic charge:  4.000000
    Partial Wave 1: l = 0
    Partial Wave 2: l = 0
    Partial Wave 3: l = 1
    Partial Wave 4: l = 1
  Core charge supplied for Nonlinear Core Corrections
File: ~/pp/paw/h_pbe_abinit.paw; rc = 0.90 bohr; shape type =  3; rshape = 0.90 bohr;
  Atomic number:  1;  ionic charge:  1.000000
    Partial Wave 1: l = 0
    Partial Wave 2: l = 0
<<<<<<<<<<<<<<<<<<<<<<<<<<<<<<<<<<<<<<< >>>>>>>>>>>>>>>>>>>>>>>>>>>>>>>>>>>>>>>

-------------------------- Atom counting information ---------------------------
Symbol    Natoms    Nngwfs    Nprojs
  C        484      1936      3872
  H        108       108       216
.......   ......    ......    ......
Totals:    592      2044      4088
--------------------------------------------------------------------------------

=============================== PSINC grid sizes ===============================
                      Simulation cell:  189 x 189 x 189
                              FFT-box:  117 x 117 x 117
                                  PPD:    7 x   7 x   1
Grid space d1=  0.499927596032a0 (KE cutoff=  30.39413Eh = 827.06648eV)
Grid space d2=  0.499927596032a0 (KE cutoff=  30.39413Eh = 827.06648eV)
Grid space d3=  0.499927596032a0 (KE cutoff=  30.39413Eh = 827.06648eV)
================================================================================
  
WARNING in cell_grid_distribute:
Average of less than one 23-slab per proc, so workload cannot be
equally balanced between procs.

********************* Fourier parallelisation information **********************
       Coarse grid (whole simulation cell) dimensions:    189   189   189
          Real-space ('12') slabs/proc (min max mean):      1     2     1
         Recip-space ('23') slabs/proc (min max mean):      0     1     0
********************************************************************************

********************* Fourier parallelisation information **********************
       Double grid (whole simulation cell) dimensions:    378   378   378
          Real-space ('12') slabs/proc (min max mean):      2     3     2
         Recip-space ('23') slabs/proc (min max mean):      1     2     1
********************************************************************************

Atom SCF Calculation for C  : Z (AE atom) =   6 : Z (PS atom) =   4
Config String: 2s2 2p2
Orbitals (num,occ):  2     2.00 2.00
Orbitals   (num,l):  2        0    1
Real-space Grid (nr,dr,rmax): 1377    0.0065406977    9.0000000000
Spherical Bessel Basis (nsws,lmax,cutoff):   37    2  183.0099912382
Confining potential (l,width,scale):  0    3.0000000000  100.0000000000
Confining potential (l,width,scale):  1    3.0000000000  100.0000000000
  1         -5.4795186097   -1.3252230651    4.5135247139   -1.6370402178
  2         -5.4480873667   -1.4027986130    4.4305957006   -1.6109824140
  3         -5.4553175168   -1.4212842775    4.4102621601   -1.6059044058
  4         -5.4627851864   -1.4247099971    4.4065125496   -1.6052912254
  5         -5.4662317525   -1.4266823431    4.4043718731   -1.6049357348
  6         -5.4679531179   -1.4277361345    4.4032352159   -1.6047498153
  7         -5.4688370531   -1.4282876632    4.4026436340   -1.6046546171
  8         -5.4692962224   -1.4285743132    4.4023378281   -1.6046060967
  9         -5.4695360875   -1.4287229388    4.4021801230   -1.6045813828
 10         -5.4696617783   -1.4287999625    4.4020988354   -1.6045687883
 11         -5.4697277645   -1.4288398966    4.4020569195   -1.6045623641
 12         -5.4697624500   -1.4288606199    4.4020352864   -1.6045590836
 13         -5.4697806994   -1.4288713865    4.4020241086   -1.6045574064
 14         -5.4697903086   -1.4288769875    4.4020183254   -1.6045565478
 15         -5.4697953717   -1.4288799052    4.4020153292   -1.6045561077
 16         -5.4697980412   -1.4288814272    4.4020137746   -1.6045558818
 17         -5.4697994496   -1.4288822223    4.4020129668   -1.6045557657
 18         -5.4698001930   -1.4288826382    4.4020125465   -1.6045557059
 19         -5.4698005858   -1.4288828561    4.4020123274   -1.6045556751
 20         -5.4698007933   -1.4288829704    4.4020122131   -1.6045556592
 21         -5.4698009031   -1.4288830304    4.4020121533   -1.6045556509
 22         -5.4698009612   -1.4288830620    4.4020121220   -1.6045556467
Atom SCF converged after  22 iterations to a total energy of     -5.46980096

Atom SCF Calculation for H  : Z (AE atom) =   1 : Z (PS atom) =   1
Config String: 1s1
Orbitals (num,occ):  1     1.00
Orbitals   (num,l):  1        0
Real-space Grid (nr,dr,rmax): 1377    0.0065406977    9.0000000000
Spherical Bessel Basis (nsws,lmax,cutoff):   37    1  183.0099912382
Confining potential (l,width,scale):  0    3.0000000000  100.0000000000
  1         -0.3687944832   -0.2607687933    0.2820952946   -0.2613406499
  2         -0.4328656062   -0.2590521405    0.2895573663   -0.2701762133
  3         -0.4633856573   -0.2560091938    0.2934204754   -0.2757429988
  4         -0.4750266404   -0.2549676794    0.2946557510   -0.2779015032
  5         -0.4793045155   -0.2546870695    0.2949704774   -0.2786577123
  6         -0.4808919118   -0.2546234645    0.2950332622   -0.2789201171
  7         -0.4814942533   -0.2546130669    0.2950388368   -0.2790132353
  8         -0.4817280090   -0.2546133926    0.2950352123   -0.2790473458
  9         -0.4818204053   -0.2546148712    0.2950319888   -0.2790602287
 10         -0.4818574273   -0.2546158825    0.2950301416   -0.2790652181
 11         -0.4818724050   -0.2546164247    0.2950292178   -0.2790671871
 12         -0.4818785049   -0.2546166894    0.2950287833   -0.2790679748
 13         -0.4818810009   -0.2546168128    0.2950285855   -0.2790682928
 14         -0.4818820255   -0.2546168689    0.2950284970   -0.2790684221
 15         -0.4818824471   -0.2546168940    0.2950284580   -0.2790684748
 16         -0.4818826210   -0.2546169051    0.2950284408   -0.2790684964
 17         -0.4818826928   -0.2546169100    0.2950284333   -0.2790685053
Atom SCF converged after  17 iterations to a total energy of     -0.48188269

================================================================================
<<<<<<<<<<<<<<<< Resuming previous ONETEP Geometry Optimisation >>>>>>>>>>>>>>>>
================================================================================

 Geometry Optimisation: output file is "592nano.geom"
 
 Geometry Optimisation: write_hamiltonian parameter over-ridden to T
 Reading continuation file "592nano.continuation" ...done
 Geometry Optimisation: read_hamiltonian parameter over-ridden to T
 
                           -------------------------------
                                     Cell Contents
                           -------------------------------
 
            xxxxxxxxxxxxxxxxxxxxxxxxxxxxxxxxxxxxxxxxxxxxxxxxxxxxxxxxxxxx
            x  Element    Atom      Absolute co-ordinates of atoms     x
            x            Number        x           y           z       x
            x----------------------------------------------------------x
            x    C         1       42.841272   41.422951   31.276170   x
            x    C         2       38.798828   43.757858   31.276238   x
            x    C         3       41.490773   39.089266   31.267213   x
            x    C         4       45.529706   41.418693   31.274588   x
            x    C         5       37.450691   41.422857   31.268012   x
            x    C         6       37.452628   46.083931   31.274978   x
            x    C         7       54.955238   48.414196   31.278922   x
            x    C         8       54.956496   53.083759   31.287576   x
            x    C         9       53.614373   46.084015   31.279409   x
            x    C        10       38.800432   57.743684   31.278388   x
            x    C        11       42.844213   60.078971   31.286663   x
            x    C        12       37.453247   55.417468   31.279222   x
            x    C        13       53.615765   55.413567   31.293429   x
            x    C        14       45.532746   60.082176   31.292372   x
            x    C        15       46.881571   39.082443   31.246660   x
            x    C        16       41.491465   43.752192   31.285859   x
            x    C        17       34.752757   46.087820   31.249298   x
            x    C        18       50.922612   41.409316   31.257052   x
            x    C        19       53.614877   50.749388   31.294757   x
            x    C        20       34.749422   50.750830   31.259539   x
            x    C        21       41.493648   57.749514   31.293530   x
            x    C        22       38.799706   39.095251   31.274548   x
            x    C        23       54.958759   43.742944   31.246121   x
            x    C        24       49.573779   43.749051   31.285315   x
            x    C        25       37.450817   50.750801   31.285216   x
            x    C        26       49.576157   57.750584   31.301200   x
            x    C        27       34.752995   55.413159   31.249034   x
            x    C        28       57.652161   48.414466   31.242241   x
            x    C        29       50.926032   60.090487   31.294228   x
            x    C        30       57.653329   53.080802   31.255989   x
            x    C        31       37.451750   60.079489   31.244286   x
            x    C        32       54.962659   57.753582   31.281088   x
            x    C        33       50.923920   55.420418   31.301639   x
            x    C        34       46.884396   57.753585   31.300848   x
            x    C        35       41.493543   62.413625   31.257150   x
            x    C        36       46.884745   62.419382   31.280322   x
            x    C        37       46.881860   43.747382   31.287886   x
            x    C        38       50.922175   46.079379   31.293588   x
            x    C        39       38.794430   48.418293   31.287585   x
            x    C        40       38.795032   53.083215   31.292633   x
            x    C        41       49.571284   39.082795   31.233106   x
            x    C        42       33.409061   48.417770   31.237707   x
            x    C        43       42.842768   36.758764   31.245119   x
            x    C        44       53.612664   41.414325   31.235777   x
            x    C        45       34.755838   41.429454   31.248316   x
            x    C        46       33.409089   53.083590   31.240606   x
            x    C        47       45.525262   36.754505   31.223215   x
            x    C        48       33.412436   43.750851   31.227739   x
            x    C        49       58.993419   50.747227   31.229023   x
            x    C        50       53.617709   60.083953   31.284304   x
            x    C        51       49.575448   62.418808   31.283618   x
            x    C        52       38.801531   62.407505   31.232333   x
            x    C        53       50.924193   50.750490   31.301636   x
            x    C        54       42.839999   55.419143   31.300354   x
            x    C        55       42.837857   46.082367   31.294121   x
            x    C        56       57.652575   43.751390   31.200606   x
            x    C        57       58.992484   46.076627   31.196375   x
            x    C        58       33.412444   57.750222   31.206994   x
            x    C        59       34.755764   60.072998   31.201988   x
            x    C        60       58.996321   55.417237   31.232358   x
            x    C        61       49.579539   53.085702   31.303264   x
            x    C        62       45.535321   55.421280   31.302484   x
            x    C        63       57.658221   57.743606   31.250133   x
            x    C        64       49.578184   48.415286   31.300489   x
            x    C        65       41.490535   53.085881   31.299259   x
            x    C        66       42.844496   64.745822   31.235247   x
            x    C        67       41.489462   48.415705   31.295652   x
            x    C        68       45.533360   46.080255   31.296158   x
            x    C        69       45.528800   64.749462   31.250995   x
            x    C        70       37.438516   36.740836   31.272369   x
            x    C        71       46.884296   53.087706   31.303757   x
            x    C        72       42.836848   50.750747   31.299473   x
            x    C        73       46.882703   48.414250   31.300215   x
            x    C        74       41.465016   34.410069   31.242509   x
            x    C        75       33.407506   39.063750   31.246052   x
            x    C        76       50.935450   36.726062   31.185091   x
            x    C        77       54.967597   39.052070   31.187962   x
            x    C        78       30.684463   48.422773   31.194656   x
            x    C        79       46.901272   34.403451   31.171408   x
            x    C        80       30.684399   53.077751   31.198857   x
            x    C        81       30.687598   43.768814   31.180030   x
            x    C        82       45.535004   50.751242   31.302152   x
            x    C        83       61.711651   50.745568   31.173983   x
            x    C        84       38.822244   34.443859   31.258716   x
            x    C        85       34.756557   36.791939   31.260043   x
            x    C        86       37.439996   64.761112   31.182658   x
            x    C        87       58.998691   41.383446   31.136977   x
            x    C        88       54.975490   62.448185   31.269612   x
            x    C        89       50.941973   64.777858   31.268961   x
            x    C        90       61.713874   46.092557   31.126183   x
            x    C        91       30.687703   57.734023   31.149918   x
            x    C        92       61.718223   55.399014   31.177611   x
            x    C        93       33.407931   62.438091   31.137490   x
            x    C        94       41.466866   67.094335   31.185982   x
            x    C        95       59.007139   60.114163   31.218598   x
            x    C        96       46.905513   67.103680   31.220624   x
            x    C        97       49.537840   34.430152   31.156677   x
            x    C        98       29.392811   46.065641   31.167497   x
            x    C        99       63.003531   48.397777   31.128613   x
            x    C       100       53.597838   36.766406   31.176687   x
            x    C       101       63.005256   53.093927   31.161470   x
            x    C       102       57.653978   39.112864   31.146971   x
            x    C       103       29.388171   50.749670   31.189800   x
            x    C       104       42.884135   32.080329   31.201118   x
            x    C       105       34.759397   64.707360   31.141091   x
            x    C       106       38.825973   67.056372   31.172714   x
            x    C       107       29.393248   55.434989   31.162590   x
            x    C       108       30.679835   39.130062   31.206479   x
            x    C       109       45.473717   32.078156   31.164630   x
            x    C       110       29.384771   41.371691   31.173640   x
            x    C       111       57.664548   62.387717   31.240845   x
            x    C       112       53.607652   64.736410   31.274812   x
            x    C       113       49.545914   67.076273   31.240929   x
            x    H       114       37.777478   32.637881   31.220531   x
            x    H       115       33.713405   34.985096   31.221417   x
            x    C       116       63.015974   43.697755   31.059456   x
            x    C       117       61.725677   41.457398   31.065899   x
            x    C       118       63.021376   57.794121   31.141089   x
            x    C       119       29.387892   60.132190   31.084941   x
            x    C       120       30.682655   62.369767   31.077112   x
            x    C       121       61.735263   60.038292   31.154250   x
            x    C       122       42.888483   69.421096   31.152481   x
            x    C       123       45.475929   69.428426   31.161587   x
            x    H       124       65.089997   53.090489   31.124280   x
            x    H       125       65.089215   48.395909   31.087918   x
            x    H       126       50.574088   32.619751   31.128199   x
            x    H       127       41.825707   30.282773   31.172075   x
            x    H       128       29.650095   37.316812   31.175743   x
            x    H       129       27.305547   46.061741   31.142871   x
            x    H       130       37.777784   68.859734   31.141769   x
            x    H       131       33.714732   66.513828   31.107448   x
            x    H       132       58.698048   37.306295   31.112909   x
            x    H       133       27.305791   55.435347   31.134409   x
            x    H       134       46.526523   30.277378   31.116064   x
            x    H       135       54.635915   34.959707   31.146588   x
            x    H       136       27.298546   41.387873   31.125923   x
            x    H       137       27.302904   50.747663   31.164059   x
            x    H       138       58.709879   64.194174   31.231790   x
            x    H       139       50.585208   68.885437   31.232393   x
            x    H       140       65.100621   43.713117   31.021195   x
            x    H       141       62.751700   39.640250   31.034942   x
            x    H       142       54.648262   66.542206   31.272520   x
            x    H       143       65.105446   57.773741   31.100066   x
            x    H       144       29.653945   64.182902   31.045587   x
            x    H       145       27.301385   60.112181   31.060667   x
            x    H       146       41.827265   71.216075   31.118227   x
            x    H       147       62.762123   61.853884   31.134551   x
            x    H       148       46.531670   71.227089   31.144400   x
            x    C       149       45.159616   41.168703   37.571859   x
            x    C       150       37.086666   45.829076   37.571826   x
            x    C       151       41.120926   43.495477   37.573916   x
            x    C       152       42.469812   41.167584   37.571392   x
            x    C       153       50.551429   41.176711   37.569292   x
            x    C       154       38.430822   43.500051   37.571335   x
            x    C       155       49.199215   43.510489   37.575259   x
            x    C       156       54.591283   43.510386   37.566293   x
            x    C       157       46.510644   43.507225   37.575551   x
[...]
            x    C       365       61.625281   50.545862   43.940641   x
            x    C       366       46.803164   52.886658   43.900579   x
            x    C       367       57.582481   62.189287   43.929831   x
            x    C       368       42.761677   50.552023   43.899619   x
            x    C       369       46.800020   48.220493   43.898938   x
            x    C       370       45.445416   36.563574   43.935009   x
            x    C       371       33.329961   62.229267   43.935829   x
            x    C       372       49.466515   66.875773   43.928961   x
            x    C       373       41.388011   66.889157   43.929055   x
            x    C       374       33.334425   43.558272   43.928085   x
            x    C       375       53.527501   64.536942   43.924957   x
            x    C       376       58.926040   59.914441   43.930955   x
            x    C       377       45.457629   55.216911   43.901235   x
            x    C       378       49.494379   52.886280   43.900536   x
            x    C       379       41.413420   48.220847   43.899558   x
            x    C       380       45.453014   45.888279   43.899211   x
            x    C       381       37.361761   64.553409   43.926538   x
            x    C       382       41.416566   52.882954   43.900481   x
            x    C       383       49.492057   48.220757   43.899244   x
            x    C       384       46.824257   66.901993   43.926512   x
            x    C       385       41.411202   38.897642   43.920130   x
            x    C       386       37.372497   41.230297   43.918527   x
            x    C       387       42.759717   45.889600   43.899729   x
            x    C       388       42.765391   55.214151   43.901104   x
            x    C       389       50.837198   50.554023   43.899855   x
            x    C       390       49.489353   38.888887   43.925249   x
            x    C       391       54.895260   62.247362   43.919404   x
            x    C       392       33.331851   48.220310   43.918475   x
            x    C       393       53.527691   41.217971   43.925137   x
            x    C       394       57.566326   43.552445   43.933775   x
            x    C       395       50.860419   64.577509   43.919601   x
            x    C       396       58.907261   45.877764   43.931625   x
            x    C       397       46.801039   38.889202   43.919939   x
            x    C       398       46.799240   43.554845   43.902055   x
            x    C       399       38.719274   48.220774   43.901921   x
            x    C       400       34.674896   45.892346   43.915533   x
            x    C       401       33.331871   52.880935   43.918539   x
            x    C       402       50.836667   45.885271   43.901761   x
            x    C       403       38.721083   52.881119   43.902397   x
            x    C       404       50.840010   55.218989   43.901907   x
            x    C       405       41.413302   43.560436   43.903145   x
            x    C       406       50.839192   41.213925   43.915629   x
            x    C       407       46.804915   57.549109   43.902535   x
            x    C       408       33.334110   57.544931   43.924911   x
            x    C       409       58.913889   55.217712   43.922276   x
            x    C       410       42.761161   41.230166   43.907661   x
            x    C       411       38.720753   43.563571   43.907080   x
            x    C       412       49.490899   43.553947   43.904516   x
            x    C       413       45.449377   41.225341   43.907588   x
            x    C       414       58.908804   50.548708   43.920893   x
            x    C       415       37.374002   50.550986   43.903992   x
            x    C       416       34.678477   59.867713   43.922880   x
            x    C       417       37.374635   45.888720   43.906385   x
            x    C       418       34.672707   50.550591   43.911710   x
            x    C       419       54.873405   43.544876   43.919213   x
            x    C       420       53.527972   50.552067   43.901957   x
            x    C       421       49.495119   57.548496   43.903183   x
            x    C       422       42.764278   64.542185   43.916182   x
            x    C       423       41.418570   57.543633   43.902787   x
            x    C       424       57.576262   57.545010   43.918219   x
            x    C       425       34.675117   55.209202   43.914936   x
            x    C       426       53.529265   45.886531   43.906587   x
            x    C       427       57.568120   48.216383   43.916741   x
            x    C       428       38.723928   62.202405   43.914530   x
            x    C       429       37.376182   55.213592   43.906108   x
            x    C       430       57.569941   52.881897   43.913483   x
            x    C       431       54.871021   48.217517   43.906107   x
            x    C       432       45.449388   64.546829   43.915354   x
            x    C       433       53.531350   55.214576   43.903888   x
            x    C       434       54.872924   52.885199   43.904763   x
            x    C       435       38.724436   57.540613   43.905743   x
            x    C       436       45.455658   59.877721   43.904463   x
            x    C       437       37.374342   59.875430   43.912687   x
            x    C       438       53.535990   59.883295   43.909599   x
            x    C       439       42.766943   59.875124   43.904762   x
            x    C       440       49.495681   62.216390   43.909829   x
            x    C       441       41.414934   62.209077   43.910060   x
            x    C       442       50.845176   59.888360   43.906501   x
            x    C       443       54.880559   57.554053   43.908812   x
            x    C       444       46.805796   62.216657   43.908734   x
            x    H       445       45.666358   32.135878   50.341020   x
            x    H       446       29.435363   41.509606   50.336972   x
            x    H       447       50.368257   32.144466   50.373103   x
            x    H       448       62.544164   39.178322   50.452594   x
            x    H       449       64.896577   43.245799   50.441820   x
            x    H       450       27.094466   45.588088   50.367142   x
            x    H       451       29.445876   63.718152   50.434195   x
            x    H       452       27.099690   59.646684   50.444521   x
            x    H       453       37.548789   36.820488   50.205171   x
            x    H       454       41.614085   34.475499   50.246507   x
            x    H       455       33.488767   39.168633   50.245309   x
            x    H       456       64.895226   52.616041   50.336655   x
            x    H       457       37.557955   68.401188   50.331550   x
            x    H       458       64.896748   61.981977   50.367554   x
            x    H       459       45.667203   73.082570   50.364189   x
            x    H       460       64.892743   47.925576   50.368425   x
            x    H       461       33.499307   66.053869   50.362390   x
            x    H       462       54.417667   34.499222   50.351021   x
            x    H       463       58.483554   36.848539   50.387352   x
            x    H       464       64.891688   57.305011   50.356544   x
            x    H       465       62.543967   66.049493   50.310639   x
            x    H       466       41.620584   70.742242   50.351651   x
            x    H       467       50.366013   73.080108   50.309928   x
            x    H       468       27.110810   54.964224   50.380344   x
            x    H       469       27.109359   50.270925   50.344774   x
            x    C       470       46.722627   33.933615   50.325520   x
            x    C       471       49.310649   33.940375   50.337375   x
            x    C       472       30.465390   43.322144   50.320970   x
            x    C       473       61.515052   40.991393   50.420747   x
            x    C       474       29.178428   45.566716   50.331750   x
            x    C       475       62.810973   43.230114   50.415358   x
            x    C       476       29.183362   59.661687   50.412540   x
            x    C       477       30.473243   61.903209   50.407505   x
            x    H       478       58.481292   68.379902   50.263279   x
            x    H       479       54.415055   70.727819   50.263110   x
            x    C       480       42.654716   36.285074   50.241432   x
            x    C       481       38.593000   38.625606   50.206395   x
            x    C       482       34.535875   40.973782   50.239926   x
            x    C       483       62.811052   61.993079   50.320236   x
            x    C       484       46.721741   71.283262   50.317563   x
            x    C       485       61.515847   64.234586   50.283661   x
            x    C       486       53.373253   36.304538   50.318838   x
            x    C       487       49.310404   71.281914   50.282512   x
            x    C       488       57.438392   38.653892   50.352409   x
            x    C       489       62.806570   47.927638   50.337626   x
            x    C       490       62.811211   52.613386   50.309174   x
            x    C       491       34.543405   64.246959   50.332052   x
            x    C       492       38.599533   66.594042   50.304759   x
            x    C       493       29.195082   50.267327   50.312826   x
            x    C       494       29.196984   54.962474   50.345557   x
            x    C       495       62.805438   57.297983   50.330743   x
            x    C       496       42.659592   68.931552   50.326608   x
            x    C       497       45.295257   36.258786   50.265164   x
            x    C       498       50.732662   36.267118   50.304687   x
            x    C       499       33.193076   43.246904   50.262441   x
            x    C       500       58.789461   40.923676   50.357456   x
            x    C       501       30.482169   47.961389   50.299566   x
            x    C       502       61.512498   45.628390   50.348626   x
            x    C       503       30.486512   57.267672   50.350688   x
            x    C       504       41.259351   38.584328   50.214391   x
            x    C       505       33.199569   61.976316   50.342640   x
            x    C       506       37.225083   40.914018   50.213893   x
            x    C       507       54.758850   38.599808   50.309245   x
            x    C       508       57.438608   66.572209   50.228062   x
            x    C       509       53.372702   68.919896   50.227950   x
            x    C       510       30.490144   52.614973   50.303782   x
            x    C       511       46.668083   52.609200   50.186823   x
            x    C       512       61.510942   59.594671   50.316696   x
            x    C       513       61.517110   50.284820   50.299045   x
            x    C       514       45.296518   68.957507   50.313538   x
            x    C       515       37.230695   64.307512   50.294859   x
            x    C       516       61.516244   54.940272   50.303076   x
            x    C       517       41.263624   66.634566   50.299313   x
            x    C       518       58.788072   64.299838   50.244953   x
            x    C       519       50.730200   68.952571   50.244420   x
            x    C       520       45.320312   54.946249   50.189696   x
            x    C       521       49.365704   52.609681   50.188825   x
            x    C       522       45.319671   50.272255   50.185337   x
            x    C       523       54.757009   66.622820   50.216808   x
            x    C       524       46.668734   57.280246   50.194216   x
            x    C       525       50.712221   54.944910   50.193635   x
            x    C       526       46.672937   38.612606   50.236841   x
            x    C       527       42.625461   54.945115   50.190020   x
            x    C       528       50.711821   50.274725   50.188662   x
            x    C       529       49.357325   38.616291   50.254224   x
            x    C       530       34.543665   45.616344   50.234826   x
            x    C       531       42.624570   50.274675   50.186740   x
            x    C       532       46.668539   47.938882   50.186004   x
            x    C       533       33.204960   47.943318   50.251171   x
            x    C       534       57.442809   43.288242   50.291280   x
            x    C       535       58.788046   45.611280   50.287844   x
            x    C       536       33.208227   57.282788   50.286913   x
            x    C       537       34.547871   59.608808   50.283796   x
            x    C       538       49.363629   57.278268   50.196181   x
            x    C       539       41.279696   52.610071   50.188909   x
            x    C       540       49.363177   47.941274   50.187639   x
            x    C       541       53.399265   40.952913   50.258373   x
            x    C       542       42.627256   40.942800   50.202853   x
            x    C       543       38.585087   43.276845   50.202602   x
            x    C       544       58.786355   59.611828   50.267695   x
            x    C       545       33.208606   52.613017   50.255165   x
            x    C       546       46.673038   66.606189   50.266031   x
            x    C       547       58.792941   50.278382   50.253706   x
            x    C       548       57.441645   61.933037   50.245563   x
            x    C       549       38.588085   61.945106   50.251369   x
            x    C       550       49.355217   66.602485   50.244856   x
            x    C       551       58.792228   54.944244   50.257283   x
            x    C       552       42.629345   64.276923   50.255214   x
            x    C       553       41.281084   57.280357   50.197056   x
            x    C       554       45.320097   59.612924   50.203214   x
            x    C       555       53.407126   54.942779   50.202628   x
            x    C       556       53.406853   50.277600   50.196060   x
            x    C       557       41.279824   47.939733   50.188095   x
            x    C       558       50.708496   40.947649   50.232349   x
            x    C       559       45.318859   45.606868   50.187623   x
            x    C       560       45.317652   40.941980   50.207248   x
            x    C       561       37.239590   45.606675   50.206752   x
            x    C       562       54.748144   43.280812   50.246711   x
            x    C       563       34.548975   50.279343   50.230462   x
            x    C       564       34.549768   54.945712   50.244332   x
            x    C       565       41.276538   43.270218   50.193425   x
            x    C       566       42.628418   59.610946   50.205297   x
            x    C       567       57.448828   47.948304   50.243664   x
            x    C       568       54.751290   52.610269   50.204843   x
            x    C       569       42.627110   45.609345   50.187581   x
            x    C       570       37.242266   59.616072   50.241785   x
            x    C       571       53.397814   64.267302   50.217526   x
            x    C       572       38.588702   52.610996   50.195599   x
            x    C       573       57.452635   52.611136   50.233227   x
            x    C       574       50.708480   45.611155   50.194838   x
            x    C       575       41.278902   61.950161   50.232107   x
            x    C       576       50.708681   59.608905   50.206033   x
            x    C       577       57.448297   57.274163   50.244833   x
            x    C       578       45.319032   64.277974   50.243731   x
            x    C       579       46.669826   43.278460   50.195863   x
            x    C       580       38.587440   47.946183   50.196134   x
            x    C       581       38.588459   57.275757   50.210610   x
            x    C       582       54.748651   47.943326   50.210606   x
            x    C       583       49.358216   43.281531   50.201871   x
            x    C       584       37.246276   50.276493   50.201861   x
            x    C       585       53.401124   45.616386   50.210968   x
            x    C       586       37.246852   54.945641   50.210845   x
            x    C       587       46.670717   61.941996   50.217268   x
            x    C       588       54.747280   61.939831   50.225369   x
            x    C       589       50.707409   64.272447   50.225258   x
            x    C       590       54.748567   57.277543   50.217216   x
            x    C       591       49.358651   61.938374   50.216388   x
            x    C       592       53.401313   59.604057   50.216307   x
            xxxxxxxxxxxxxxxxxxxxxxxxxxxxxxxxxxxxxxxxxxxxxxxxxxxxxxxxxxxx
 

Determining parallel strategy ...
... using space-filling curve
... NGWF load balancing: max     16;  min     12;  average     13
... Projector load balancing: max     32;  min     24;  average     26
... done
Calculating Ewald energy ...
              Ewald: real-space energy =   34541.617233
        Ewald: reciprocal-space energy =   32927.069129
         Ewald: (sum_charge)**2 Energy =    2633.028967
         Ewald: (sum_charge**2) Energy =     240.804719
                          Ewald Energy =   64594.852676
Basis initialisation ...... NGWF spheres initialised
... Projector spheres initialised
... NGWF tight boxes initialised
... Projector tight boxes initialised
... Tight-boxes gathered
... NGWF basis size (local,global):     259195  41270228
... PAW projector initialisation
... done

============================= Charge Augmentation ==============================
                           Aug box size:   13 x  13 x  13
================================================================================

========================== Sparse matrix information ===========================
                        Overlap matrix filling:  39.16%
                        Density kernel filling: 100.00%
              NGWF-Proj overlap matrix filling:  10.78%
                    Aug Overlap matrix filling:  43.41%
                    Hamiltonian matrix filling:  43.41%
                  NGWF diagonal matrix filling:   0.19%
                             KS matrix filling: 100.00% 
                           KSKS matrix filling: 100.00% 
================================================================================

Sparse matrix initialisation ... done

Reading NGWFs from file "592nano.tightbox_ngwfs" ...  done
============ Calculation of NGWF S^-1 using Hotelling algorithm ================ 
         Iteration  |  Frobenius norm and Maximum abs value    (of I-S*S_n^-1)   
               1       0.43998640E+02     0.98138281E+00
               2       0.42990917E+02     0.96349540E+00
               3       0.41411285E+02     0.92973519E+00
               4       0.39270586E+02     0.86923864E+00
               5       0.36692144E+02     0.77399438E+00
               6       0.33742766E+02     0.68853731E+00
               7       0.30635564E+02     0.63797123E+00
               8       0.27623736E+02     0.59948907E+00
               9       0.24435525E+02     0.55596919E+00
              10       0.20419817E+02     0.48759120E+00
              11       0.15178084E+02     0.37856530E+00
              12       0.91601475E+01     0.23760579E+00
              13       0.39104900E+01     0.10096406E+00
              14       0.89949895E+00     0.21374080E-01
              15       0.62177894E-01     0.12129469E-02
              16       0.43585225E-03     0.58207657E-05
              17       0.35689279E-07     0.33061742E-09
              18       0.66009456E-13     0.33306691E-14
================================================================================
Calculating core density ...
================================= Core Density =================================
               Core den box size:   21 x  21 x  21
================================================================================
 ... done


