 +---------------------------------------------------------------+
 |                                                               |
 |        ####### #     # ####### ####### ####### ######         |
 |        #     # ##    # #          #    #       #     #        |
 |        #     # # #   # #          #    #       #     #        |
 |        #     # #  #  # #####      #    #####   ######         |
 |        #     # #   # # #          #    #       #              |
 |        #     # #    ## #          #    #       #              |
 |        ####### #     # #######    #    ####### #              |
 |                                                               |
 |        Linear-Scaling Ab Initio Total Energy Program          |
 |                                                               |
 |          Release for academic collaborators of ODG            |
 |                                             Version 6.1.5.8   |
 |                                                               |
 +---------------------------------------------------------------+
 |                                                               |
 |  Authors:                                                     |
 |  Jacek Dziedzic, Peter D. Haynes, Nicholas D. M. Hine,        |
 |  Arash A. Mostofi, Mike C. Payne and Chris-Kriton Skylaris    |
 |                                                               |
 |  Contributors:                                                |
 |  J. Aarons, L. Andrinopoulos, P. W. Avraam, R. A. Bell,       |
 |  A. Bhandari, G. A. Bramley, R. J. Charlton, S. J. Clark,     |
 |  R. J. Clements, G. C. Constantinescu, F. Corsetti,           |
 |  N. Corsini, O. Dieguez, S. M. M. Dubois, K. K. B. Duff,      |
 |  J. M. Escartin, A. Greco, H. Helal, Q. O. Hill, L. P. Lee,   |
 |  J.-H. Li, E. B. Linscott, G. Moynihan, D. D. O`Regan,        |
 |  O. K. Okan, M. J. S. Phipps, C. J. Pickard,                  |
 |  J. C. A. Prentice, M. I. J. Probert, L. E. Ratcliff,         |
 |  M. Robinson, A. Ruiz Serrano, J. S. Spencer, E. W. Tait,     |
 |  G. Teobaldi, D. Turban, V. Vitale, K. A. Wilkinson,          |
 |  C. Weber, J. C. Womack, N. Yeung and T. J. Zuehlsdorff       |
 |                                                               |
 |                                   Copyright (c) 2004-2022     |
 |                                                               |
 |  Please cite:                                                 |
 |  "The ONETEP linear-scaling density functional theory program"|
 |   J. Chem. Phys. 152(17) 174111 (2020)                        |
 |                                                               |
 |          in all publications arising from your use of ONETEP. |
 |                                                               |
 +---------------------------------------------------------------+
 |                                                               |
 |   ONETEP is based on developments described in the following  |
 |   publications:                                               |
 |                                                               |
 |  "Nonorthogonal generalized Wannier function pseudopotential  |
 |   plane-wave method".                                         |
 |   C.-K. Skylaris, A. A. Mostofi, P. D. Haynes, O. Dieguez,    |
 |   M. C. Payne.                                                |
 |   Phys. Rev. B 66 035119 (2002).                              |
 |                                                               |
 |  "Preconditioned iterative minimization for linear-scaling    |
 |   electronic structure calculations".                         |
 |   A. A. Mostofi, P. D. Haynes, C.-K. Skylaris, M. C. Payne.   |
 |   J. Chem. Phys. 119(17), pp.8842-8848 (2003).                |
 |                                                               |
 |  "Total-energy calculations on a real space grid with         |
 |   localized functions and a plane-wave basis".                |
 |   A. A. Mostofi, C.-K. Skylaris, P. D. Haynes, M. C. Payne.   |
 |   Comput. Phys. Commun. 147, pp.788-802 (2002).               |
 |                                                               |
 |  "Accurate kinetic energy evaluation in electronic structure  |
 |   calculations with localized functions on real space grids"  |
 |   C.-K. Skylaris, A. A. Mostofi, P. D. Haynes, C. J. Pickard, |
 |   M. C. Payne.                                                |
 |   Comput. Phys. Commun. 140, pp.315-322 (2001).               |
 |                                                               |
 |  "Accurate ionic forces and geometry optimization in linear-  |
 |   scaling density-functional theory with local orbitals"      |
 |   N. D. M. Hine, M. Robinson, P. D. Haynes, C.-K. Skylaris,   |
 |   M. C. Payne, and A. A. Mostofi.                             |
 |   Phys. Rev. B 83 195102 (2011).                              |
 |                                                               |
 +---------------------------------------------------------------+

Job started: 24-03-2022 09:08 (+0000)
 
Reading parameters from file "ab_full_perfect_592nano.dat" ...... done

If your calculation crashes here, before "Checking processes and threads..."
is displayed, then your stack size is insufficient.
If so, use "ulimit -s unlimited" at runtime.
You can disable this check with "check_stack_size F".

Checking processes and threads...
   Determining the default number of threads...
      No default threads set at compilation time: defaulting to 1.
      OpenMP library call suggests 8 threads.
      Hybrid MPI-OpenMP compilation detected.
      Number of MPI processes > 1.
      OMP_NUM_THREADS environment variable present and
      its value matches the one obtained from the OpenMP library call.
      Using this value as default.
      Default threads: 8
      Default applies to threads_max and threads_num_fftboxes.
      Settings in the input file override this default.
   ... done

   Running with 64 MPI processes.
   There are 16 MPI processes running on the same node as the root process.
   Each MPI process is using: 
               1 threads for simulation cell FFTs.
               1 threads for parallel FFT box operations.
               8 threads for loops over batched FFT box operations.
               8 threads in other parallel regions.
... done

Basic input checks...
Resetting ngwf_cg_rotate to TRUE for EDFT calculations
... done

Reading geometry and species blocks from file "ab_full_perfect_592nano.dat" ...   
  Number of PPD points along a3 set to 1.  This is 
  the default value, it may have been provided also in the input file.
... done


--------------------------------------------------------------------------------
---------------------------------- INPUT FILE ----------------------------------
--------------------------------------------------------------------------------

task : geometryoptimization                                                     
do_properties : true                                                            
xc_functional OPTPBE                                                            
cutoff_energy 830 eV                                                            
paw T                                                                           
edft T                                                                          
edft_spin_fix 3                                                                 
edft_update_scheme: pulay_mix                                                   
edft_ham_diis_size: 10                                                          
edft_trial_step: 0.1                                                            
EDFT_MAXIT 30                                                                   
geom_continuation T                                                             
read_denskern                                                                   
read_tightbox_ngwfs T                                                           
geom_disp_tol 0.03 bohr                                                         
geom_energy_tol 3E-6 hartree                                                    
geom_force_tol 0.005 "ha/bohr"                                                  
geom_max_iter 25                                                                
pdos_max_l = 2                                                                  
dos_smear  0.2 eV                                                               
popn_calculate T                                                                
PDOS_PSEUDOATOMIC T                                                             
PDOS_REDUCE_SWS F                                                               
PDOS_CONSTRUCT_BASIS F                                                          
PDOS_LOWDIN T                                                                   
PDOS_ORTH_ATOM_BLOCKS F                                                         
PDOS_LCAO_OPTIMIZE F                                                            
pdos_optados_output T                                                           
homo_plot 0                                                                     
lumo_plot 0                                                                     
homo_dens_plot -1                                                               
lumo_dens_plot -1                                                               
output_detail VERBOSE                                                           
timings_level 3                                                                 
write_xyz T                                                                     
%BLOCK SPECIES                                                                  
C C 6 4 9.0                                                                     
H H 1 1 9.0                                                                     
Li Li 3 5 9.0                                                                   
%ENDBLOCK SPECIES                                                               
%BLOCK SPECIES_POT                                                              
C "./pp/c_pbe_abinit.paw"                                                       
H "./pp/h_pbe_abinit.paw"                                                       
Li "./pp/li_pbe_abinit.paw"                                                     
%ENDBLOCK SPECIES_POT                                                           
%BLOCK SPECIES_ATOMIC_SET                                                       
C "SOLVE conf=2s2 2p2"                                                          
H "SOLVE conf=1s1"                                                              
Li "SOLVE conf=1s2 2s1 2p0"                                                     
%ENDBLOCK SPECIES_ATOMIC_SET                                                    
%BLOCK SPECIES_LDOS_GROUPS                                                      
C                                                                               
H                                                                               
Li                                                                              
%ENDBLOCK SPECIES_LDOS_GROUPS                                                   
%block lattice_cart                                                             
94.486315650000      0.000000000000       0.000000000000                        
0.000000000000       94.486315650000      0.000000000000                        
0.000000000000       0.000000000000       94.486315650000                       
%endblock lattice_cart                                                          
%block positions_abs                                                            
     Hash =  -000006793438556453610851
%endblock positions_abs                                                         

--------------------------------------------------------------------------------
-------------------------------- END INPUT FILE --------------------------------
--------------------------------------------------------------------------------


 
<<<<<<<<<<<<<<<<<<<<<<<<<<<<<<<<< Full system >>>>>>>>>>>>>>>>>>>>>>>>>>>>>>>>>>
<<<<<<<<<<<<<<<<<<<<<<<<<<< PAW Dataset information >>>>>>>>>>>>>>>>>>>>>>>>>>>
File: ./pp/c_pbe_abinit.paw; rc = 1.25 bohr; shape type =  3; rshape = 1.25 bohr;
  Atomic number:  6;  ionic charge:  4.000000
    Partial Wave 1: l = 0
    Partial Wave 2: l = 0
    Partial Wave 3: l = 1
    Partial Wave 4: l = 1
  Core charge supplied for Nonlinear Core Corrections
File: ./pp/h_pbe_abinit.paw; rc = 0.90 bohr; shape type =  3; rshape = 0.90 bohr;
  Atomic number:  1;  ionic charge:  1.000000
    Partial Wave 1: l = 0
    Partial Wave 2: l = 0
File: ./pp/li_pbe_abinit.paw; rc = 1.42 bohr; shape type =  3; rshape = 1.42 bohr;
  Atomic number:  3;  ionic charge:  3.000000
    Partial Wave 1: l = 0
    Partial Wave 2: l = 0
    Partial Wave 3: l = 0
    Partial Wave 4: l = 1
    Partial Wave 5: l = 1
<<<<<<<<<<<<<<<<<<<<<<<<<<<<<<<<<<<<<<< >>>>>>>>>>>>>>>>>>>>>>>>>>>>>>>>>>>>>>>

-------------------------- Atom counting information ---------------------------
Symbol    Natoms    Nngwfs    Nprojs
  C        484      1936      3872
  H        108       108       216
  Li        42       210       378
.......   ......    ......    ......
Totals:    634      2254      4466
--------------------------------------------------------------------------------

=============================== PSINC grid sizes ===============================
                      Simulation cell:  189 x 189 x 189
                              FFT-box:  117 x 117 x 117
                                  PPD:    7 x   7 x   1
Grid space d1=  0.499927596032a0 (KE cutoff=  30.39413Eh = 827.06648eV)
Grid space d2=  0.499927596032a0 (KE cutoff=  30.39413Eh = 827.06648eV)
Grid space d3=  0.499927596032a0 (KE cutoff=  30.39413Eh = 827.06648eV)
================================================================================

********************* Fourier parallelisation information **********************
       Coarse grid (whole simulation cell) dimensions:    189   189   189
          Real-space ('12') slabs/proc (min max mean):      2     3     2
         Recip-space ('23') slabs/proc (min max mean):      1     2     1
********************************************************************************

********************* Fourier parallelisation information **********************
       Double grid (whole simulation cell) dimensions:    378   378   378
          Real-space ('12') slabs/proc (min max mean):      5     6     5
         Recip-space ('23') slabs/proc (min max mean):      2     3     2
********************************************************************************

Atom SCF Calculation for C  : Z (AE atom) =   6 : Z (PS atom) =   4
Config String: 2s2 2p2
Orbitals (num,occ):  2     2.00 2.00
Orbitals   (num,l):  2        0    1
Real-space Grid (nr,dr,rmax): 1377    0.0065406977    9.0000000000
Spherical Bessel Basis (nsws,lmax,cutoff):   37    2  183.0099912382
Confining potential (l,width,scale):  0    3.0000000000  100.0000000000
Confining potential (l,width,scale):  1    3.0000000000  100.0000000000
  1         -5.4795186097   -1.3252230651    4.5135247139   -1.6370402178
  2         -5.4480873667   -1.4027986130    4.4305957006   -1.6109824140
  3         -5.4553175168   -1.4212842775    4.4102621601   -1.6059044058
  4         -5.4627851864   -1.4247099971    4.4065125496   -1.6052912254
  5         -5.4662317525   -1.4266823431    4.4043718731   -1.6049357348
  6         -5.4679531179   -1.4277361345    4.4032352159   -1.6047498153
  7         -5.4688370531   -1.4282876632    4.4026436340   -1.6046546171
  8         -5.4692962224   -1.4285743132    4.4023378281   -1.6046060967
  9         -5.4695360875   -1.4287229388    4.4021801230   -1.6045813828
 10         -5.4696617783   -1.4287999625    4.4020988354   -1.6045687883
 11         -5.4697277645   -1.4288398966    4.4020569195   -1.6045623641
 12         -5.4697624500   -1.4288606199    4.4020352864   -1.6045590836
 13         -5.4697806994   -1.4288713865    4.4020241086   -1.6045574064
 14         -5.4697903086   -1.4288769875    4.4020183254   -1.6045565478
 15         -5.4697953717   -1.4288799052    4.4020153292   -1.6045561077
 16         -5.4697980412   -1.4288814272    4.4020137746   -1.6045558818
 17         -5.4697994496   -1.4288822223    4.4020129668   -1.6045557657
 18         -5.4698001930   -1.4288826382    4.4020125465   -1.6045557059
 19         -5.4698005858   -1.4288828561    4.4020123274   -1.6045556751
 20         -5.4698007933   -1.4288829704    4.4020122131   -1.6045556592
 21         -5.4698009031   -1.4288830304    4.4020121533   -1.6045556509
 22         -5.4698009612   -1.4288830620    4.4020121220   -1.6045556467
Atom SCF converged after  22 iterations to a total energy of     -5.46980096

Atom SCF Calculation for H  : Z (AE atom) =   1 : Z (PS atom) =   1
Config String: 1s1
Orbitals (num,occ):  1     1.00
Orbitals   (num,l):  1        0
Real-space Grid (nr,dr,rmax): 1377    0.0065406977    9.0000000000
Spherical Bessel Basis (nsws,lmax,cutoff):   37    1  183.0099912382
Confining potential (l,width,scale):  0    3.0000000000  100.0000000000
  1         -0.3687944832   -0.2607687933    0.2820952946   -0.2613406499
  2         -0.4328656062   -0.2590521405    0.2895573663   -0.2701762133
  3         -0.4633856573   -0.2560091938    0.2934204754   -0.2757429988
  4         -0.4750266404   -0.2549676794    0.2946557510   -0.2779015032
  5         -0.4793045155   -0.2546870695    0.2949704774   -0.2786577123
  6         -0.4808919118   -0.2546234645    0.2950332622   -0.2789201171
  7         -0.4814942533   -0.2546130669    0.2950388368   -0.2790132353
  8         -0.4817280090   -0.2546133926    0.2950352123   -0.2790473458
  9         -0.4818204053   -0.2546148712    0.2950319888   -0.2790602287
 10         -0.4818574273   -0.2546158825    0.2950301416   -0.2790652181
 11         -0.4818724050   -0.2546164247    0.2950292178   -0.2790671871
 12         -0.4818785049   -0.2546166894    0.2950287833   -0.2790679748
 13         -0.4818810009   -0.2546168128    0.2950285855   -0.2790682928
 14         -0.4818820255   -0.2546168689    0.2950284970   -0.2790684221
 15         -0.4818824471   -0.2546168940    0.2950284580   -0.2790684748
 16         -0.4818826210   -0.2546169051    0.2950284408   -0.2790684964
 17         -0.4818826928   -0.2546169100    0.2950284333   -0.2790685053
Atom SCF converged after  17 iterations to a total energy of     -0.48188269

Atom SCF Calculation for Li : Z (AE atom) =   3 : Z (PS atom) =   3
Config String: 1s2 2s1 2p0
Orbitals (num,occ):  3     2.00 1.00 0.00
Orbitals   (num,l):  3        0    0    1
Real-space Grid (nr,dr,rmax): 1377    0.0065406977    9.0000000000
Spherical Bessel Basis (nsws,lmax,cutoff):   37    2  183.0099912382
Confining potential (l,width,scale):  0    3.0000000000  100.0000000000
Confining potential (l,width,scale):  1    3.0000000000  100.0000000000
  1         -6.1314629607   -4.7499359229    2.5388576516   -1.0480231927
  2         -7.0450508208   -4.1702030791    2.9795337774   -1.2623862962
  3         -7.3518474013   -3.9564527259    3.2037296734   -1.3880788964
  4         -7.4613386962   -3.8947565558    3.2914990517   -1.4402825036
  5         -7.5001516047   -3.8789668192    3.3221434609   -1.4602864917
  6         -7.5136113510   -3.8755528126    3.3322769691   -1.4678164580
  7         -7.5181182589   -3.8751724459    3.3354399675   -1.4706394447
  8         -7.5195538340   -3.8753832694    3.3363346353   -1.4716958846
  9         -7.5199777516   -3.8756112412    3.3365363545   -1.4720903919
 10         -7.5200869011   -3.8757624244    3.3365501247   -1.4722372325
 11         -7.5201065703   -3.8758489541    3.3365264569   -1.4722916218
 12         -7.5201049812   -3.8758952022    3.3365040630   -1.4723116262
 13         -7.5201006323   -3.8759190019    3.3364892955   -1.4723189110
 14         -7.5200980758   -3.8759285770    3.3364824548   -1.4723210036
 15         -7.5200963811   -3.8759342877    3.3364781194   -1.4723220111
 16         -7.5200953120   -3.8759376792    3.3364754203   -1.4723224913
 17         -7.5200946593   -3.8759396866    3.3364737619   -1.4723227171
 18         -7.5200942701   -3.8759408718    3.3364727530   -1.4723228213
 19         -7.5200940419   -3.8759415700    3.3364721439   -1.4723228682
 20         -7.5200939099   -3.8759419808    3.3364717784   -1.4723228886
 21         -7.5200938343   -3.8759422222    3.3364715600   -1.4723228969
Atom SCF converged after  21 iterations to a total energy of     -7.52009383

================================================================================
<<<<<<<<<<<<<<<< Resuming previous ONETEP Geometry Optimisation >>>>>>>>>>>>>>>>
================================================================================

 Geometry Optimisation: output file is "ab_full_perfect_592nano.geom"
 
 Geometry Optimisation: write_hamiltonian parameter over-ridden to T
 Reading continuation file "ab_full_perfect_592nano.continuation" ...done
 Geometry Optimisation: read_hamiltonian parameter over-ridden to T
 
                           -------------------------------
                                     Cell Contents
                           -------------------------------
 
            xxxxxxxxxxxxxxxxxxxxxxxxxxxxxxxxxxxxxxxxxxxxxxxxxxxxxxxxxxxx
            x  Element    Atom      Absolute co-ordinates of atoms     x
            x            Number        x           y           z       x
            x----------------------------------------------------------x
            x    C         1       42.777096   41.273340   30.182529   x
            x    C         2       38.711705   43.608351   30.062576   x
            x    C         3       41.434626   38.926850   30.166371   x
            x    C         4       45.481866   41.279925   30.232851   x
            x    C         5       37.373598   41.258412   30.051100   x
            x    C         6       37.347871   45.962232   30.065039   x
            x    C         7       54.959679   48.319659   30.265085   x
            x    C         8       54.969051   52.990666   30.216644   x
            x    C         9       53.595009   45.964686   30.284111   x
            x    C        10       38.695463   57.719477   30.032777   x
            x    C        11       42.762454   60.069314   30.022984   x
            x    C        12       37.336978   55.358047   30.076384   x
            x    C        13       53.616341   55.346452   30.115309   x
            x    C        14       45.473762   60.064835   29.992600   x
            x    C        15       46.844615   38.929492   30.441871   x
            x    C        16       41.426838   43.611764   30.092836   x
            x    C        17       34.643938   45.960251   30.091636   x
            x    C        18       50.907688   41.280087   30.465241   x
            x    C        19       53.615899   50.656751   30.236952   x
            x    C        20       34.633089   50.653658   30.095521   x
            x    C        21       41.414394   57.725709   30.030389   x
            x    C        22       38.727752   38.921381   30.057958   x
            x    C        23       54.949563   43.606623   30.465549   x
            x    C        24       49.552466   43.630304   30.259986   x
            x    C        25       37.341146   50.662579   30.120869   x
            x    C        26       49.559850   57.702888   30.025607   x
            x    C        27       34.631222   55.344228   30.115315   x
            x    C        28       57.683538   48.311916   30.398227   x
            x    C        29       50.923447   60.054576   29.928103   x
            x    C        30       57.687780   52.975997   30.343573   x
            x    C        31       37.343997   60.064352   30.028212   x
            x    C        32       54.977897   57.692210   30.037866   x
            x    C        33       50.908007   55.361155   30.111339   x
            x    C        34       46.833668   57.707945   30.044224   x
            x    C        35       41.400810   62.405290   29.966616   x
            x    C        36       46.841468   62.408389   29.888848   x
            x    C        37       46.832484   43.630038   30.180280   x
            x    C        38       50.901268   45.970814   30.249780   x
            x    C        39       38.699255   48.322113   30.077215   x
            x    C        40       38.694621   53.006164   30.099080   x
            x    C        41       49.547041   38.935366   30.602503   x
            x    C        42       33.287774   48.289148   30.089070   x
            x    C        43       42.810687   36.582769   30.341751   x
            x    C        44       53.601884   41.281155   30.636391   x
            x    C        45       34.669829   41.261448   29.992208   x
            x    C        46       33.281432   53.010909   30.105285   x
            x    C        47       45.491833   36.596954   30.569621   x
            x    C        48       33.311122   43.603146   30.041218   x
            x    C        49       59.031512   50.642354   30.514898   x
            x    C        50       53.634386   60.026868   29.921864   x
            x    C        51       49.558585   62.403740   29.862535   x
            x    C        52       38.686011   62.401359   29.980468   x
            x    C        53       50.907517   50.662728   30.164912   x
            x    C        54       42.774765   55.368812   30.081201   x
            x    C        55       42.782412   45.970734   30.093565   x
            x    C        56       57.661143   43.616969   30.611298   x
            x    C        57       59.020847   45.956851   30.568989   x
            x    C        58       33.287066   57.694889   30.075414   x
            x    C        59       34.636406   60.042377   30.008402   x
            x    C        60       59.046472   55.321355   30.378599   x
            x    C        61       49.552152   53.024344   30.122661   x
            x    C        62       45.480537   55.370878   30.112410   x
            x    C        63       57.705162   57.671615   30.176634   x
            x    C        64       49.550915   48.316701   30.168002   x
            x    C        65       41.414500   53.011154   30.101398   x
            x    C        66       42.770205   64.756869   29.878024   x
            x    C        67       41.417605   48.328668   30.082658   x
            x    C        68       45.479999   45.973934   30.150530   x
            x    C        69       45.466419   64.750719   29.804728   x
            x    C        70       37.357359   36.534552   30.049428   x
            x    C        71       46.833205   53.027072   30.112472   x
            x    C        72       42.765464   50.671421   30.129070   x
            x    C        73       46.830852   48.317043   30.138548   x
            x    C        74       41.440755   34.224188   30.360239   x
            x    C        75       33.331257   38.872906   29.986336   x
            x    C        76       50.911628   36.589768   30.955529   x
            x    C        77       54.944462   38.928353   30.956639   x
            x    C        78       30.534130   48.285385   30.110737   x
            x    C        79       46.867787   34.274911   30.879761   x
            x    C        80       30.526145   53.000971   30.127783   x
            x    C        81       30.576236   43.624488   30.101795   x
            x    C        82       45.473270   50.670816   30.118234   x
            x    C        83       61.744095   50.639848   30.786236   x
            x    C        84       38.772888   34.243162   30.213784   x
            x    C        85       34.692665   36.584521   30.046420   x
            x    C        86       37.301329   64.785309   29.967423   x
            x    C        87       58.982394   41.257509   30.932407   x
            x    C        88       55.007454   62.374328   29.717604   x
            x    C        89       50.935851   64.769300   29.711896   x
            x    C        90       61.730538   45.978752   30.852367   x
            x    C        91       30.555009   57.659408   30.150522   x
            x    C        92       61.750266   55.296665   30.695477   x
            x    C        93       33.286366   62.422826   30.001045   x
            x    C        94       41.384181   67.116889   29.865451   x
            x    C        95       59.050748   60.017962   30.218062   x
            x    C        96       46.838866   67.079220   29.561232   x
            x    C        97       49.505139   34.314963   31.093350   x
            x    C        98       29.265122   45.937482   30.195474   x
            x    C        99       63.016606   48.281333   30.945304   x
            x    C       100       53.569317   36.655679   31.128180   x
            x    C       101       63.027164   52.977927   30.899906   x
            x    C       102       57.626135   39.002188   31.097042   x
            x    C       103       29.239008   50.638405   30.181498   x
            x    C       104       42.867479   31.931236   30.684480   x
            x    C       105       34.637500   64.718414   30.024040   x
            x    C       106       38.700708   67.082399   30.002758   x
            x    C       107       29.249838   55.339097   30.234816   x
            x    C       108       30.616588   38.954533   30.057405   x
            x    C       109       45.446310   31.960271   30.945835   x
            x    C       110       29.301029   41.225384   30.123907   x
            x    C       111       57.687725   62.308867   29.932542   x
            x    C       112       53.620164   64.688807   29.650603   x
            x    C       113       49.542153   67.045061   29.586371   x
            x    H       114       37.742701   32.436137   30.299550   x
            x    H       115       33.646285   34.785581   30.114958   x
            x    C       116       63.001163   43.577754   31.051599   x
            x    C       117       61.699057   41.340926   31.091357   x
            x    C       118       63.019914   57.684155   30.795036   x
            x    C       119       29.268055   60.049249   30.178850   x
            x    C       120       30.571706   62.327336   30.092295   x
            x    C       121       61.733160   59.935621   30.551348   x
            x    C       122       42.804465   69.403864   29.806547   x
            x    C       123       45.423763   69.387468   29.614827   x
            x    H       124       65.096003   52.979232   31.138442   x
            x    H       125       65.088342   48.273412   31.161492   x
            x    H       126       50.528830   32.520300   31.354373   x
            x    H       127       41.826588   30.128482   30.733745   x
            x    H       128       29.580227   37.151081   30.128461   x
            x    H       129       27.184870   45.918790   30.290841   x
            x    H       130       37.667914   68.888735   30.047398   x
            x    H       131       33.579997   66.512201   30.062884   x
            x    H       132       58.658958   37.212002   31.354720   x
            x    H       133       27.169488   55.349312   30.330717   x
            x    H       134       46.489126   30.177608   31.204116   x
            x    H       135       54.603342   34.868859   31.395045   x
            x    H       136       27.223457   41.219695   30.245701   x
            x    H       137       27.160869   50.633768   30.294112   x
            x    H       138       58.768795   64.087026   29.724274   x
            x    H       139       50.567738   68.836618   29.276449   x
            x    H       140       65.077838   43.578960   31.197968   x
            x    H       141       62.717494   39.534972   31.272684   x
            x    H       142       54.658020   66.469186   29.296181   x
            x    H       143       65.083236   57.688856   31.070226   x
            x    H       144       29.521983   64.123734   30.151171   x
            x    H       145       27.189963   60.041990   30.300295   x
            x    H       146       41.776869   71.213646   29.867919   x
            x    H       147       62.773473   61.737111   30.641034   x
            x    H       148       46.453601   71.195991   29.456964   x
            x    C       149       43.993646   38.620047   37.362922   x
            x    C       150       35.826838   43.290171   37.247406   x
            x    C       151       39.896158   40.949359   37.310704   x
            x    C       152       41.291505   38.615370   37.321962   x
            x    C       153       49.432134   38.609185   37.403327   x
            x    C       154       37.196288   40.953734   37.260729   x
            x    C       155       48.056518   40.964749   37.360111   x
            x    C       156       53.471276   40.968054   37.391547   x
            x    C       157       45.322974   40.967850   37.363625   x
            x    C       158       52.110283   43.326696   37.371238   x
            x    C       159       35.812054   48.005402   37.254944   x
            x    C       160       37.149739   45.650913   37.254273   x
            x    C       161       45.374471   36.281126   37.401990   x
            x    C       162       35.806828   52.711909   37.273113   x
            x    C       163       33.101206   47.983576   37.236176   x
            x    C       164       53.448501   45.685356   37.355626   x
            x    C       165       52.130722   38.627415   37.428662   x
            x    C       166       33.089533   52.714006   37.267287   x
            x    C       167       56.176679   45.660857   37.349164   x
            x    C       168       33.104906   43.310525   37.232039   x
            x    C       169       49.413008   43.335796   37.384965   x
            x    C       170       37.134406   55.068541   37.282186   x
            x    C       171       48.071643   36.282463   37.438314   x
            x    C       172       41.262288   43.295274   37.317874   x
            x    C       173       37.166524   50.363828   37.271163   x
            x    C       174       35.800901   57.432415   37.282545   x
            x    C       175       56.164872   40.963082   37.399404   x
            x    C       176       56.192130   50.380254   37.375453   x
            x    C       177       53.467069   50.405631   37.388183   x
            x    C       178       53.481116   55.106115   37.367806   x
            x    C       179       31.735343   50.342899   37.227710   x
            x    C       180       45.316975   59.821619   37.286693   x
            x    C       181       41.236472   57.453314   37.337969   x
            x    C       182       57.525197   43.292750   37.372634   x
            x    C       183       31.747650   45.641965   37.238309   x
            x    C       184       52.157912   57.477501   37.328013   x
            x    C       185       43.965404   43.328147   37.361013   x
            x    C       186       48.051842   59.831396   37.254534   x
            x    C       187       39.887093   45.660382   37.277472   x
            x    C       188       39.861808   59.814172   37.317577   x
            x    C       189       49.417641   57.462713   37.319920   x
            x    C       190       52.111347   48.053079   37.369354   x
            x    C       191       57.542035   48.028522   37.378371   x
            x    C       192       39.876376   55.085067   37.288732   x
            x    C       193       56.221582   55.060232   37.320570   x
            x    C       194       52.121066   52.761920   37.424839   x
            x    C       195       43.967495   57.471192   37.328212   x
            x    C       196       39.928309   36.222354   37.263762   x
            x    C       197       31.733031   55.056788   37.279437   x
            x    C       198       43.963127   62.195157   37.266114   x
            x    C       199       35.829315   38.571619   37.224891   x
            x    C       200       33.085889   57.393219   37.260283   x
            x    C       201       37.162354   59.782223   37.285767   x
            x    C       202       57.575320   52.697906   37.376097   x
            x    C       203       41.237122   62.139939   37.262733   x
            x    C       204       48.034185   45.689080   37.379753   x
            x    C       205       39.874727   50.385007   37.302582   x
            x    C       206       48.041352   55.135376   37.355785   x
            x    C       207       44.025868   33.941778   37.390206   x
            x    C       208       53.491676   36.261096   37.475050   x
            x    C       209       53.515069   59.811091   37.252000   x
            x    C       210       49.400086   48.026342   37.362878   x
            x    C       211       49.441840   62.203310   37.216689   x
            x    C       212       41.240019   52.721735   37.314465   x
            x    C       213       45.319168   55.118668   37.340110   x
            x    C       214       49.402975   52.769017   37.390862   x
            x    C       215       45.320394   45.682856   37.376519   x
            x    C       216       41.246218   48.028235   37.325226   x
            x    C       217       31.745254   40.926433   37.186992   x
            x    C       218       37.225646   36.277971   37.216116   x
            x    C       219       49.454222   33.945586   37.484468   x
            x    C       220       41.344759   33.946775   37.305965   x
            x    C       221       57.605589   57.423400   37.324636   x
            x    C       222       57.511227   38.598878   37.443069   x
            x    C       223       33.160995   38.605609   37.182210   x
            x    C       224       45.326418   64.520473   37.194099   x
            x    C       225       43.966587   52.762777   37.353207   x
            x    C       226       48.038472   50.402184   37.343475   x
            x    C       227       28.968205   50.343323   37.262234   x
            x    C       228       43.964166   48.034559   37.373756   x
            x    C       229       60.287926   48.013982   37.416657   x
            x    C       230       52.170596   62.172092   37.203894   x
            x    C       231       45.301434   50.393659   37.359567   x
            x    C       232       60.247446   43.328157   37.406816   x
            x    C       233       29.013906   45.664701   37.257861   x
            x    C       234       56.260167   59.781479   37.260281   x
            x    C       235       56.170229   36.325020   37.466356   x
            x    C       236       28.994905   55.031347   37.305037   x
            x    C       237       48.056473   64.544453   37.165917   x
            x    C       238       60.329345   52.683040   37.449189   x
            x    C       239       52.107731   33.982102   37.495334   x
            x    C       240       35.780071   62.149252   37.250070   x
            x    C       241       31.706744   59.760625   37.208680   x
            x    C       242       39.857043   64.510055   37.190727   x
            x    C       243       45.438361   31.641998   37.446649   x
            x    C       244       27.702427   52.700740   37.306954   x
            x    C       245       61.546231   45.638355   37.423903   x
            x    C       246       27.707966   47.991768   37.282042   x
            x    C       247       61.592625   50.331508   37.461362   x
            x    C       248       48.037878   31.640960   37.496951   x
            x    C       249       29.043958   41.012778   37.204699   x
            x    C       250       33.110850   62.102644   37.214166   x
            x    C       251       60.231719   38.688024   37.433986   x
            x    C       252       37.169517   64.450329   37.222485   x
            x    C       253       60.342158   57.355215   37.410402   x
            x    H       254       36.191705   34.467760   37.183856   x
            x    H       255       40.325039   32.128649   37.257503   x
            x    C       256       61.529724   40.928092   37.427513   x
            x    C       257       43.950234   66.913374   37.149332   x
            x    H       258       32.121177   36.799222   37.135576   x
            x    C       259       61.621835   55.020043   37.470889   x
            x    C       260       27.734778   43.299544   37.257083   x
            x    C       261       41.239854   66.832504   37.174917   x
            x    H       262       57.216401   34.519747   37.474001   x
            x    C       263       27.697047   57.394259   37.313853   x
            x    C       264       29.003394   59.677649   37.238768   x
            x    H       265       53.144046   32.173739   37.511086   x
            x    C       266       53.540404   64.554347   37.143346   x
            x    H       267       44.386699   29.844434   37.442853   x
            x    H       268       25.619670   52.704613   37.334145   x
            x    C       269       57.651867   62.104701   37.203574   x
            x    C       270       49.468618   66.909037   37.142402   x
            x    H       271       63.630978   45.619386   37.457345   x
            x    H       272       28.002440   39.206610   37.181097   x
            x    H       273       25.625331   47.975366   37.315148   x
            x    H       274       63.676576   50.308864   37.496751   x
            x    H       275       49.083255   29.840313   37.533463   x
            x    H       276       61.265478   36.877851   37.433460   x
            x    H       277       32.059879   63.906343   37.186209   x
            x    H       278       36.126055   66.259137   37.197460   x
            x    H       279       63.611824   40.940010   37.437183   x
            x    H       280       63.708736   55.015090   37.524734   x
            x    H       281       25.653151   43.290136   37.287589   x
            x    H       282       25.615732   57.393272   37.331918   x
            x    C       283       61.644433   59.717980   37.453327   x
            x    H       284       40.179289   68.631120   37.179140   x
            x    C       285       45.340747   69.200421   37.073073   x
            x    H       286       27.959593   61.484163   37.198345   x
            x    C       287       52.156800   66.828954   37.189269   x
            x    C       288       56.276146   64.489226   37.078366   x
            x    C       289       60.345751   61.987931   37.335716   x
            x    C       290       48.074547   69.236573   37.093969   x
            x    H       291       63.726100   59.698573   37.553979   x
            x    H       292       44.301115   71.002744   37.046462   x
            x    H       293       53.193196   68.636428   37.245056   x
            x    H       294       57.339226   66.285094   37.159962   x
            x    H       295       61.410575   63.779106   37.345751   x
            x    H       296       49.106976   71.045197   37.104945   x
            x    H       297       29.388626   36.908116   44.278451   x
            x    H       298       41.771550   29.879434   44.043105   x
            x    H       299       33.493679   34.537046   44.254571   x
            x    H       300       37.621428   32.174289   44.152328   x
            x    H       301       46.457454   29.929843   43.940235   x
            x    H       302       27.004718   41.013463   44.165390   x
            x    C       303       42.799091   31.690628   44.076466   x
            x    C       304       30.433689   38.705261   44.283251   x
            x    H       305       62.700082   39.323775   43.955374   x
            x    C       306       34.533078   36.340915   44.289030   x
            x    C       307       38.630988   33.991457   44.203035   x
            x    C       308       45.399396   31.720953   44.018312   x
            x    H       309       50.497744   32.255869   43.920319   x
            x    H       310       65.052740   43.367104   43.962342   x
            x    C       311       29.083139   41.036388   44.211102   x
            x    H       312       65.100969   57.509344   43.977151   x
            x    H       313       26.963642   45.748865   44.106163   x
            x    H       314       26.948111   59.928348   44.183490   x
            x    H       315       54.582056   34.613287   43.925270   x
            x    H       316       58.633998   36.960949   43.949938   x
            x    H       317       29.313959   64.062327   44.238921   x
            x    H       318       26.931824   50.476862   44.078985   x
            x    H       319       65.105224   52.785415   43.986137   x
            x    H       320       41.630429   71.162080   44.322910   x
            x    H       321       62.777708   61.572871   44.115455   x
            x    H       322       26.936282   55.203340   44.078967   x
            x    H       323       65.083310   48.083442   43.979212   x
            x    C       324       33.143599   38.631410   44.317177   x
            x    C       325       41.355043   33.978572   44.182590   x
            x    H       326       46.362392   71.156195   44.411883   x
            x    C       327       37.190528   36.295612   44.273434   x
            x    H       328       37.497802   68.811887   44.261511   x
            x    C       329       61.667758   41.132107   43.995455   x
            x    C       330       62.969353   43.373965   43.999567   x
            x    H       331       33.420144   66.447477   44.200870   x
            x    C       332       49.467387   34.064479   44.001579   x
            x    C       333       63.021017   57.509668   44.074197   x
            x    C       334       29.045708   45.766348   44.176238   x
            x    H       335       58.707420   64.017974   44.352761   x
            x    C       336       29.026767   59.923580   44.216073   x
            x    C       337       46.809838   34.030542   44.063499   x
            x    H       338       50.511325   68.799845   44.346997   x
            x    H       339       54.598262   66.422077   44.326213   x
            x    C       340       30.350014   43.421690   44.220094   x
            x    C       341       30.369750   62.271956   44.246120   x
            x    C       342       53.534880   36.412328   43.998000   x
            x    C       343       61.717741   59.779102   44.151774   x
            x    C       344       57.591906   38.764416   44.010752   x
            x    C       345       42.655102   69.351613   44.362152   x
            x    C       346       29.011223   50.484369   44.152456   x
            x    C       347       63.023605   52.794718   44.060684   x
            x    C       348       29.018623   55.202284   44.135493   x
            x    C       349       63.000515   48.096222   44.039448   x
            x    C       350       45.326649   69.341112   44.426014   x
            x    C       351       50.867350   36.334554   44.046733   x
            x    C       352       58.948259   41.028990   44.043521   x
            x    C       353       38.537424   67.010059   44.286086   x
            x    C       354       54.904825   38.692810   44.048623   x
            x    C       355       30.314471   48.096119   44.223942   x
            x    C       356       61.709271   45.787666   44.053648   x
            x    C       357       34.465145   64.645936   44.226547   x
            x    C       358       42.712179   36.342661   44.236778   x
            x    C       359       61.751137   55.129938   44.112982   x
            x    C       360       34.493634   41.043100   44.319509   x
            x    C       361       30.311601   57.552959   44.198231   x
            x    C       362       45.332378   50.531533   44.391603   x
            x    C       363       30.300386   52.879325   44.162079   x
            x    C       364       38.576056   38.699314   44.317166   x
            x    C       365       61.728939   50.460567   44.092239   x
            x    C       366       46.700565   52.894084   44.384944   x
            x    C       367       57.639435   62.215003   44.345045   x
            x    C       368       42.613658   50.519082   44.383424   x
            x    C       369       46.707023   48.130624   44.374197   x
            x    C       370       45.413096   36.354188   44.184097   x
            x    C       371       33.075696   62.352224   44.250375   x
            x    C       372       49.468440   66.988327   44.408636   x
            x    C       373       41.258382   67.079608   44.345509   x
            x    C       374       33.118581   43.415840   44.287935   x
            x    C       375       53.544196   64.610129   44.365809   x
            x    C       376       59.037007   59.889371   44.262382   x
            x    C       377       45.355359   55.259151   44.393817   x
            x    C       378       49.466398   52.898508   44.372380   x
            x    C       379       41.267080   48.171364   44.369200   x
            x    C       380       45.357677   45.794253   44.373140   x
            x    C       381       37.117343   64.695413   44.257917   x
            x    C       382       41.264819   52.875892   44.386610   x
            x    C       383       49.451679   48.141406   44.357757   x
            x    C       384       46.722134   67.035006   44.431450   x
            x    C       385       41.304292   38.715516   44.316081   x
            x    C       386       37.196828   41.038570   44.336064   x
            x    C       387       42.635926   45.785612   44.379469   x
            x    C       388       42.628477   55.242526   44.387344   x
            x    C       389       50.823882   50.509504   44.348684   x
            x    C       390       49.483460   38.700621   44.156263   x
            x    C       391       54.938355   62.258404   44.366907   x
            x    C       392       33.087385   48.117571   44.297052   x
            x    C       393       53.547995   41.061771   44.146905   x
            x    C       394       57.616071   43.399924   44.130892   x
            x    C       395       50.846557   64.694287   44.382435   x
            x    C       396       58.994251   45.770651   44.128647   x
            x    C       397       46.748138   38.696975   44.234244   x
            x    C       398       46.717940   43.445204   44.343410   x
            x    C       399       38.506693   48.161799   44.337748   x
            x    C       400       34.436036   45.764276   44.307435   x
            x    C       401       33.076245   52.871002   44.249782   x
            x    C       402       50.815210   45.787668   44.313473   x
            x    C       403       38.500204   52.855184   44.342883   x
            x    C       404       50.818302   55.234038   44.380509   x
            x    C       405       41.280589   43.408713   44.377766   x
            x    C       406       50.848134   41.066755   44.191533   x
            x    C       407       46.713525   57.588195   44.402853   x
            x    C       408       33.081195   57.569463   44.245888   x
            x    C       409       59.027086   55.175392   44.207777   x
            x    C       410       42.647798   41.053659   44.352392   x
            x    C       411       38.534793   43.395300   44.351151   x
            x    C       412       49.459463   43.450834   44.291488   x
            x    C       413       45.354903   41.067858   44.331534   x
            x    C       414       59.000810   50.472435   44.181315   x
            x    C       415       37.155318   50.512372   44.330179   x
            x    C       416       34.448853   59.950243   44.257449   x
            x    C       417       37.156252   45.774225   44.334230   x
            x    C       418       34.423792   50.495800   44.303329   x
            x    C       419       54.885645   43.397968   44.196503   x
            x    C       420       53.545184   50.496102   44.315270   x
            x    C       421       49.466500   57.587389   44.410784   x
            x    C       422       42.635411   64.682462   44.363211   x
            x    C       423       41.263457   57.637587   44.352035   x
            x    C       424       57.675716   57.556553   44.274273   x
            x    C       425       34.414437   55.233201   44.259834   x
            x    C       426       53.516140   45.781163   44.278786   x
            x    C       427       57.638005   48.148742   44.206549   x
            x    C       428       38.512813   62.308258   44.282669   x
            x    C       429       37.137291   55.249978   44.301272   x
            x    C       430       57.647751   52.809875   44.239217   x
            x    C       431       54.892112   48.153493   44.278475   x
            x    C       432       45.349258   64.685094   44.387497   x
            x    C       433       53.544348   55.216706   44.353893   x
            x    C       434       54.902697   52.828270   44.305870   x
            x    C       435       38.501077   57.615212   44.291718   x
            x    C       436       45.331692   59.982873   44.390656   x
            x    C       437       37.145573   59.977060   44.269517   x
            x    C       438       53.559523   59.920600   44.367022   x
            x    C       439       42.622619   59.976334   44.358537   x
            x    C       440       49.474957   62.330966   44.383439   x
            x    C       441       41.254170   62.333722   44.339004   x
            x    C       442       50.848164   59.950755   44.389219   x
            x    C       443       54.917589   57.566376   44.343243   x
            x    C       444       46.715664   62.338177   44.374309   x
            x    H       445       44.403736   29.611538   50.302257   x
            x    H       446       28.113027   38.910694   51.280222   x
            x    H       447       49.080357   29.629288   49.976187   x
            x    H       448       61.265470   36.687405   50.049864   x
            x    H       449       63.593138   40.751793   50.126669   x
            x    H       450       25.791633   42.967122   50.837721   x
            x    H       451       28.053861   61.127368   51.287388   x
            x    H       452       25.746250   57.061666   50.823658   x
            x    H       453       36.270479   34.201199   51.273433   x
            x    H       454       40.370946   31.881062   50.967687   x
            x    H       455       32.194284   36.547132   51.353615   x
            x    H       456       63.567315   50.115845   50.150646   x
            x    H       457       36.171171   65.888151   51.381563   x
            x    H       458       63.555875   59.509330   50.412938   x
            x    H       459       44.299217   70.586696   51.998186   x
            x    H       460       63.573116   45.425545   50.159418   x
            x    H       461       32.122825   63.524855   51.425870   x
            x    H       462       53.158177   31.960806   50.012914   x
            x    H       463       57.215861   34.343367   49.998835   x
            x    H       464       63.560229   54.817224   50.230596   x
            x    H       465       61.276942   63.543653   51.086686   x
            x    H       466       40.241176   68.259910   51.507408   x
            x    H       467       49.002223   70.606847   52.432577   x
            x    H       468       25.758764   52.371262   50.656179   x
            x    H       469       25.763292   47.654466   50.723413   x
            x    C       470       45.456155   31.404289   50.403557   x
            x    C       471       48.043896   31.417486   50.219951   x
            x    C       472       29.153216   40.715164   51.293933   x
            x    C       473       60.230105   38.482798   50.237481   x
            x    C       474       27.863578   42.972078   51.050493   x
            x    C       475       61.520677   40.728903   50.286541   x
            x    C       476       27.821347   57.063878   51.001788   x
            x    C       477       29.106206   59.326458   51.243671   x
            x    H       478       57.271555   65.902843   52.066051   x
            x    H       479       53.164958   68.324949   52.159866   x
            x    C       480       41.397368   33.694231   51.015399   x
            x    C       481       37.308585   36.007778   51.299725   x
            x    C       482       33.242295   38.347705   51.375457   x
            x    C       483       61.502777   59.501210   50.750470   x
            x    C       484       45.359493   68.799454   51.868746   x
            x    C       485       60.233005   61.740603   51.111104   x
            x    C       486       52.120863   33.756078   50.249863   x
            x    C       487       47.997117   68.813046   52.110197   x
            x    C       488       56.169445   36.128607   50.230506   x
            x    C       489       61.512729   45.421580   50.458691   x
            x    C       490       61.513399   50.109733   50.488378   x
            x    C       491       33.177623   61.725439   51.345515   x
            x    C       492       37.228988   64.089518   51.327367   x
            x    C       493       27.833868   47.665174   50.955157   x
            x    C       494       27.828498   52.366891   50.893876   x
            x    C       495       61.504915   54.799281   50.567118   x
            x    C       496       41.286617   66.454818   51.440472   x
            x    C       497       44.044298   33.693581   50.751535   x
            x    C       498       49.471558   33.718801   50.370213   x
            x    C       499       31.871322   40.636556   51.478706   x
            x    C       500       57.513364   38.396212   50.380178   x
            x    C       501       29.139313   45.360885   51.105197   x
            x    C       502       60.231546   43.112790   50.545873   x
            x    C       503       29.116041   54.692059   51.040537   x
            x    C       504       39.988780   35.962178   51.350287   x
            x    C       505       31.816327   59.412370   51.419115   x
            x    C       506       35.915677   38.293830   51.349345   x
            x    C       507       53.496531   36.046519   50.381607   x
            x    C       508       56.203460   64.128765   51.829236   x
            x    C       509       52.131366   66.511063   52.021748   x
            x    C       510       29.096821   50.017765   51.119067   x
            x    C       511       45.363152   50.063027   51.464276   x
            x    C       512       60.226280   57.109010   50.844652   x
            x    C       513       60.244225   47.781221   50.684885   x
            x    C       514       43.965891   66.507651   51.573181   x
            x    C       515       35.849747   61.792991   51.323198   x
            x    C       516       60.242565   52.442120   50.725885   x
            x    C       517       39.905146   64.157646   51.518083   x
            x    C       518       57.543441   61.823077   51.475805   x
            x    C       519       49.450002   66.534564   51.925088   x
            x    C       520       44.011696   52.414611   51.452302   x
            x    C       521       48.073269   50.074929   51.507959   x
            x    C       522       44.025923   47.712245   51.443118   x
            x    C       523       53.505967   64.222075   51.851505   x
            x    C       524       45.356675   54.768756   51.451384   x
            x    C       525       49.420266   52.438813   51.443195   x
            x    C       526       45.411070   36.030826   50.853786   x
            x    C       527       41.313591   52.385734   51.456502   x
            x    C       528       49.430922   47.728551   51.379275   x
            x    C       529       48.096691   36.042092   50.691777   x
            x    C       530       33.203818   43.013802   51.393893   x
            x    C       531       41.320579   47.703775   51.508770   x
            x    C       532       45.381129   45.373081   51.372337   x
            x    C       533       31.854493   45.341374   51.297376   x
            x    C       534       56.174082   40.741827   50.701217   x
            x    C       535       57.523469   43.066830   50.854358   x
            x    C       536       31.833175   54.722261   51.239372   x
            x    C       537       33.170131   57.053410   51.320932   x
            x    C       538       48.062502   54.778036   51.439404   x
            x    C       539       39.963383   50.042976   51.458772   x
            x    C       540       48.079901   45.390889   51.333628   x
            x    C       541       52.141046   38.389683   50.708497   x
            x    C       542       41.351311   38.338419   51.266365   x
            x    C       543       37.269736   40.671686   51.370453   x
            x    C       544       57.527412   57.138670   51.221849   x
            x    C       545       31.842547   50.020518   51.366259   x
            x    C       546       45.363738   64.165495   51.544755   x
            x    C       547       57.531322   47.759918   51.063250   x
            x    C       548       56.187759   59.474420   51.388340   x
            x    C       549       37.221679   59.424947   51.351276   x
            x    C       550       48.061834   64.181647   51.660478   x
            x    C       551       57.526640   52.442096   51.103068   x
            x    C       552       41.293867   61.789629   51.440276   x
            x    C       553       39.951082   54.735960   51.505310   x
            x    C       554       44.004883   57.111040   51.457836   x
            x    C       555       52.128476   52.441890   51.382800   x
            x    C       556       52.132909   47.746536   51.321205   x
            x    C       557       39.966529   45.346146   51.534420   x
            x    C       558       49.450645   38.366007   50.908160   x
            x    C       559       44.031545   43.029811   51.325697   x
            x    C       560       44.039623   38.349826   51.118949   x
            x    C       561       35.916396   42.998712   51.393584   x
            x    C       562       53.486070   40.723843   50.861402   x
            x    C       563       33.198603   47.686706   51.352395   x
            x    C       564       33.190639   52.373575   51.329843   x
            x    C       565       39.974182   40.669397   51.334543   x
            x    C       566       41.296363   57.102463   51.458336   x
            x    C       567       56.189433   45.410103   51.199506   x
            x    C       568       53.479398   50.094803   51.321252   x
            x    C       569       41.327328   43.004183   51.381525   x
            x    C       570       35.885334   57.083751   51.352263   x
            x    C       571       52.137443   61.835995   51.637924   x
            x    C       572       37.252466   50.038873   51.418363   x
            x    C       573       56.175312   50.100204   51.174566   x
            x    C       574       49.440760   43.050942   51.260768   x
            x    C       575       39.931299   59.450200   51.401430   x
            x    C       576       49.422129   57.123433   51.482601   x
            x    C       577       56.183640   54.774446   51.360367   x
            x    C       578       43.991133   61.810365   51.467447   x
            x    C       579       45.381484   40.696699   51.231147   x
            x    C       580       37.257679   45.349131   51.436997   x
            x    C       581       37.235732   54.732495   51.403159   x
            x    C       582       53.474416   45.406297   51.233714   x
            x    C       583       48.089226   40.698873   51.262600   x
            x    C       584       35.905715   47.701072   51.404113   x
            x    C       585       52.136046   43.060128   51.128464   x
            x    C       586       35.897224   52.378981   51.376948   x
            x    C       587       45.353091   59.461500   51.498440   x
            x    C       588       53.473539   59.491805   51.507605   x
            x    C       589       49.430415   61.830021   51.625455   x
            x    C       590       53.466552   54.781097   51.407413   x
            x    C       591       48.065522   59.469945   51.599212   x
            x    C       592       52.120963   57.137549   51.453756   x
            x    Li      593       31.537939   60.121688   47.565519   x
            x    Li      594       31.616719   60.154848   40.991084   x
            x    Li      595       32.116136   60.186089   33.387493   x
            x    Li      596       31.738158   50.652365   33.386740   x
            x    Li      597       31.245928   50.761964   47.544979   x
            x    Li      598       31.586081   50.458382   41.023339   x
            x    Li      599       31.748179   40.797174   40.997966   x
            x    Li      600       31.543137   41.001517   47.592889   x
            x    Li      601       32.090295   41.143112   33.356394   x
            x    Li      602       40.012684   65.015406   33.327231   x
            x    Li      603       39.833178   64.845423   40.989743   x
            x    Li      604       39.563453   64.813963   47.700107   x
            x    Li      605       39.678832   55.530220   47.637452   x
            x    Li      606       39.919347   55.280112   41.122936   x
            x    Li      607       40.074194   55.549692   33.410744   x
            x    Li      608       40.059853   46.046940   33.399174   x
            x    Li      609       39.924672   45.780113   41.123932   x
            x    Li      610       39.792776   45.888759   47.639208   x
            x    Li      611       39.821349   36.017709   47.535478   x
            x    Li      612       39.857432   36.206981   41.020498   x
            x    Li      613       39.848841   36.557518   33.477261   x
            x    Li      614       47.588618   68.111759   33.336514   x
            x    Li      615       47.511763   67.947752   48.195227   x
            x    Li      616       47.159109   67.846277   40.651563   x
            x    Li      617       48.109594   59.977894   41.126664   x
            x    Li      618       48.120339   60.298493   47.751707   x
            x    Li      619       48.241892   60.152797   33.335615   x
            x    Li      620       48.174095   50.736706   33.470959   x
            x    Li      621       48.108526   50.596228   47.624198   x
            x    Li      622       48.039827   50.545534   41.160131   x
            x    Li      623       48.039386   41.094279   41.117683   x
            x    Li      624       48.058461   41.551588   33.585349   x
            x    Li      625       48.335763   40.893113   47.447712   x
            x    Li      626       55.631643   63.686641   47.950912   x
            x    Li      627       55.633646   63.547074   40.775703   x
            x    Li      628       55.701965   64.154999   33.221079   x
            x    Li      629       56.278790   55.535606   33.494449   x
            x    Li      630       56.548046   55.227606   47.532081   x
            x    Li      631       56.332223   55.276432   41.093030   x
            x    Li      632       56.334176   45.765491   41.073575   x
            x    Li      633       56.211432   46.125883   33.611725   x
            x    Li      634       56.596548   45.644267   47.400803   x
            xxxxxxxxxxxxxxxxxxxxxxxxxxxxxxxxxxxxxxxxxxxxxxxxxxxxxxxxxxxx
 

BFGS: continuation file name is "ab_full_perfect_592nano.continuation"
 BFGS : Restarting previous  geometry optimization.
x_vec(   1)=   0.00000
x_vec(   2)=   0.00000
x_vec(   3)=   0.00000
x_vec(   4)=   0.00000
x_vec(   5)=   0.00000
x_vec(   6)=   0.00000
x_vec(   7)=   0.00000
x_vec(   8)=   0.00000
x_vec(   9)=   0.00000
x_vec(  10)=   0.45273
x_vec(  11)=   0.43682
x_vec(  12)=   0.31944
x_vec(  13)=   0.40971
x_vec(  14)=   0.46153
x_vec(  15)=   0.31817
x_vec(  16)=   0.43853
x_vec(  17)=   0.41198
x_vec(  18)=   0.31927
x_vec(  19)=   0.48136
x_vec(  20)=   0.43689
x_vec(  21)=   0.31997
x_vec(  22)=   0.39555
x_vec(  23)=   0.43666
x_vec(  24)=   0.31805
x_vec(  25)=   0.39527
x_vec(  26)=   0.48644
x_vec(  27)=   0.31819
x_vec(  28)=   0.58167
x_vec(  29)=   0.51139
x_vec(  30)=   0.32031
x_vec(  31)=   0.58177
x_vec(  32)=   0.56083
x_vec(  33)=   0.31980
x_vec(  34)=   0.56723
x_vec(  35)=   0.48647
x_vec(  36)=   0.32051
x_vec(  37)=   0.40954
x_vec(  38)=   0.61088
x_vec(  39)=   0.31785
x_vec(  40)=   0.45258
x_vec(  41)=   0.63575
x_vec(  42)=   0.31775
x_vec(  43)=   0.39516
x_vec(  44)=   0.58588
x_vec(  45)=   0.31831
x_vec(  46)=   0.56745
x_vec(  47)=   0.58576
x_vec(  48)=   0.31873
x_vec(  49)=   0.48127
x_vec(  50)=   0.63570
x_vec(  51)=   0.31743
x_vec(  52)=   0.49578
x_vec(  53)=   0.41201
x_vec(  54)=   0.32218
x_vec(  55)=   0.43844
x_vec(  56)=   0.46157
x_vec(  57)=   0.31849
x_vec(  58)=   0.36666
x_vec(  59)=   0.48642
x_vec(  60)=   0.31848
x_vec(  61)=   0.53878
x_vec(  62)=   0.43689
x_vec(  63)=   0.32243
x_vec(  64)=   0.56745
x_vec(  65)=   0.53613
x_vec(  66)=   0.32001
x_vec(  67)=   0.36654
x_vec(  68)=   0.53610
x_vec(  69)=   0.31852
x_vec(  70)=   0.43831
x_vec(  71)=   0.61094
x_vec(  72)=   0.31783
x_vec(  73)=   0.40988
x_vec(  74)=   0.41193
x_vec(  75)=   0.31812
x_vec(  76)=   0.58156
x_vec(  77)=   0.46151
x_vec(  78)=   0.32243
x_vec(  79)=   0.52444
x_vec(  80)=   0.46176
x_vec(  81)=   0.32026
x_vec(  82)=   0.39520
x_vec(  83)=   0.53619
x_vec(  84)=   0.31879
x_vec(  85)=   0.52452
x_vec(  86)=   0.61070
x_vec(  87)=   0.31778
x_vec(  88)=   0.36652
x_vec(  89)=   0.58574
x_vec(  90)=   0.31873
x_vec(  91)=   0.61050
x_vec(  92)=   0.51131
x_vec(  93)=   0.32172
x_vec(  94)=   0.53895
x_vec(  95)=   0.63559
x_vec(  96)=   0.31675
x_vec(  97)=   0.61054
x_vec(  98)=   0.56067
x_vec(  99)=   0.32114
x_vec( 100)=   0.39523
x_vec( 101)=   0.63569
x_vec( 102)=   0.31780
x_vec( 103)=   0.58186
x_vec( 104)=   0.61059
x_vec( 105)=   0.31791
x_vec( 106)=   0.53879
x_vec( 107)=   0.58592
x_vec( 108)=   0.31868
x_vec( 109)=   0.49567
x_vec( 110)=   0.61075
x_vec( 111)=   0.31797
x_vec( 112)=   0.43817
x_vec( 113)=   0.66047
x_vec( 114)=   0.31715
x_vec( 115)=   0.49575
x_vec( 116)=   0.66050
x_vec( 117)=   0.31633
x_vec( 118)=   0.49565
x_vec( 119)=   0.46176
x_vec( 120)=   0.31941
x_vec( 121)=   0.53872
x_vec( 122)=   0.48653
x_vec( 123)=   0.32015
x_vec( 124)=   0.40958
x_vec( 125)=   0.51142
x_vec( 126)=   0.31832
x_vec( 127)=   0.40953
x_vec( 128)=   0.56099
x_vec( 129)=   0.31855
x_vec( 130)=   0.52438
x_vec( 131)=   0.41207
x_vec( 132)=   0.32388
x_vec( 133)=   0.35230
x_vec( 134)=   0.51107
x_vec( 135)=   0.31845
x_vec( 136)=   0.45309
x_vec( 137)=   0.38718
x_vec( 138)=   0.32112
x_vec( 139)=   0.56730
x_vec( 140)=   0.43690
x_vec( 141)=   0.32424
x_vec( 142)=   0.36693
x_vec( 143)=   0.43669
x_vec( 144)=   0.31742
x_vec( 145)=   0.35224
x_vec( 146)=   0.56104
x_vec( 147)=   0.31862
x_vec( 148)=   0.48146
x_vec( 149)=   0.38733
x_vec( 150)=   0.32353
x_vec( 151)=   0.35255
x_vec( 152)=   0.46148
x_vec( 153)=   0.31794
x_vec( 154)=   0.62476
x_vec( 155)=   0.53598
x_vec( 156)=   0.32296
x_vec( 157)=   0.56764
x_vec( 158)=   0.63530
x_vec( 159)=   0.31668
x_vec( 160)=   0.52451
x_vec( 161)=   0.66045
x_vec( 162)=   0.31605
x_vec( 163)=   0.40944
x_vec( 164)=   0.66043
x_vec( 165)=   0.31730
x_vec( 166)=   0.53878
x_vec( 167)=   0.53619
x_vec( 168)=   0.31925
x_vec( 169)=   0.45271
x_vec( 170)=   0.58600
x_vec( 171)=   0.31837
x_vec( 172)=   0.45279
x_vec( 173)=   0.48653
x_vec( 174)=   0.31850
x_vec( 175)=   0.61026
x_vec( 176)=   0.46162
x_vec( 177)=   0.32398
x_vec( 178)=   0.62465
x_vec( 179)=   0.48639
x_vec( 180)=   0.32353
x_vec( 181)=   0.35230
x_vec( 182)=   0.61062
x_vec( 183)=   0.31830
x_vec( 184)=   0.36658
x_vec( 185)=   0.63546
x_vec( 186)=   0.31760
x_vec( 187)=   0.62492
x_vec( 188)=   0.58550
x_vec( 189)=   0.32151
x_vec( 190)=   0.52444
x_vec( 191)=   0.56119
x_vec( 192)=   0.31880
x_vec( 193)=   0.48135
x_vec( 194)=   0.58602
x_vec( 195)=   0.31870
x_vec( 196)=   0.61073
x_vec( 197)=   0.61037
x_vec( 198)=   0.31938
x_vec( 199)=   0.52442
x_vec( 200)=   0.51136
x_vec( 201)=   0.31928
x_vec( 202)=   0.43831
x_vec( 203)=   0.56105
x_vec( 204)=   0.31858
x_vec( 205)=   0.45266
x_vec( 206)=   0.68536
x_vec( 207)=   0.31622
x_vec( 208)=   0.43835
x_vec( 209)=   0.51149
x_vec( 210)=   0.31838
x_vec( 211)=   0.48134
x_vec( 212)=   0.48657
x_vec( 213)=   0.31910
x_vec( 214)=   0.48120
x_vec( 215)=   0.68529
x_vec( 216)=   0.31544
x_vec( 217)=   0.39537
x_vec( 218)=   0.38667
x_vec( 219)=   0.31803
x_vec( 220)=   0.49566
x_vec( 221)=   0.56121
x_vec( 222)=   0.31870
x_vec( 223)=   0.45261
x_vec( 224)=   0.53628
x_vec( 225)=   0.31887
x_vec( 226)=   0.49564
x_vec( 227)=   0.51137
x_vec( 228)=   0.31897
x_vec( 229)=   0.43859
x_vec( 230)=   0.36221
x_vec( 231)=   0.32132
x_vec( 232)=   0.35276
x_vec( 233)=   0.41141
x_vec( 234)=   0.31736
x_vec( 235)=   0.53883
x_vec( 236)=   0.38725
x_vec( 237)=   0.32762
x_vec( 238)=   0.58151
x_vec( 239)=   0.41200
x_vec( 240)=   0.32763
x_vec( 241)=   0.32316
x_vec( 242)=   0.51103
x_vec( 243)=   0.31868
x_vec( 244)=   0.49603
x_vec( 245)=   0.36275
x_vec( 246)=   0.32682
x_vec( 247)=   0.32307
x_vec( 248)=   0.56094
x_vec( 249)=   0.31886
x_vec( 250)=   0.32360
x_vec( 251)=   0.46170
x_vec( 252)=   0.31858
x_vec( 253)=   0.48127
x_vec( 254)=   0.53628
x_vec( 255)=   0.31876
x_vec( 256)=   0.65347
x_vec( 257)=   0.53595
x_vec( 258)=   0.32583
x_vec( 259)=   0.41035
x_vec( 260)=   0.36241
x_vec( 261)=   0.31977
x_vec( 262)=   0.36717
x_vec( 263)=   0.38719
x_vec( 264)=   0.31800
x_vec( 265)=   0.39478
x_vec( 266)=   0.68566
x_vec( 267)=   0.31716
x_vec( 268)=   0.62424
x_vec( 269)=   0.43665
x_vec( 270)=   0.32737
x_vec( 271)=   0.58217
x_vec( 272)=   0.66014
x_vec( 273)=   0.31452
x_vec( 274)=   0.53908
x_vec( 275)=   0.68549
x_vec( 276)=   0.31446
x_vec( 277)=   0.65333
x_vec( 278)=   0.48662
x_vec( 279)=   0.32653
x_vec( 280)=   0.32338
x_vec( 281)=   0.61024
x_vec( 282)=   0.31910
x_vec( 283)=   0.65354
x_vec( 284)=   0.58523
x_vec( 285)=   0.32487
x_vec( 286)=   0.35229
x_vec( 287)=   0.66065
x_vec( 288)=   0.31752
x_vec( 289)=   0.43799
x_vec( 290)=   0.71033
x_vec( 291)=   0.31608
x_vec( 292)=   0.62497
x_vec( 293)=   0.63520
x_vec( 294)=   0.31981
x_vec( 295)=   0.49572
x_vec( 296)=   0.70994
x_vec( 297)=   0.31286
x_vec( 298)=   0.52394
x_vec( 299)=   0.36317
x_vec( 300)=   0.32908
x_vec( 301)=   0.30973
x_vec( 302)=   0.48618
x_vec( 303)=   0.31958
x_vec( 304)=   0.66694
x_vec( 305)=   0.51099
x_vec( 306)=   0.32751
x_vec( 307)=   0.56695
x_vec( 308)=   0.38795
x_vec( 309)=   0.32945
x_vec( 310)=   0.66705
x_vec( 311)=   0.56069
x_vec( 312)=   0.32703
x_vec( 313)=   0.60989
x_vec( 314)=   0.41278
x_vec( 315)=   0.32912
x_vec( 316)=   0.30945
x_vec( 317)=   0.53593
x_vec( 318)=   0.31943
x_vec( 319)=   0.45369
x_vec( 320)=   0.33795
x_vec( 321)=   0.32475
x_vec( 322)=   0.36659
x_vec( 323)=   0.68495
x_vec( 324)=   0.31776
x_vec( 325)=   0.40959
x_vec( 326)=   0.70997
x_vec( 327)=   0.31754
x_vec( 328)=   0.30957
x_vec( 329)=   0.58568
x_vec( 330)=   0.31999
x_vec( 331)=   0.32403
x_vec( 332)=   0.41228
x_vec( 333)=   0.31811
x_vec( 334)=   0.48098
x_vec( 335)=   0.33825
x_vec( 336)=   0.32752
x_vec( 337)=   0.31011
x_vec( 338)=   0.43631
x_vec( 339)=   0.31882
x_vec( 340)=   0.61054
x_vec( 341)=   0.65945
x_vec( 342)=   0.31679
x_vec( 343)=   0.56749
x_vec( 344)=   0.68464
x_vec( 345)=   0.31381
x_vec( 346)=   0.52433
x_vec( 347)=   0.70957
x_vec( 348)=   0.31313
x_vec( 349)=   0.39945
x_vec( 350)=   0.34329
x_vec( 351)=   0.32068
x_vec( 352)=   0.35610
x_vec( 353)=   0.36815
x_vec( 354)=   0.31872
x_vec( 355)=   0.66678
x_vec( 356)=   0.46121
x_vec( 357)=   0.32864
x_vec( 358)=   0.65299
x_vec( 359)=   0.43753
x_vec( 360)=   0.32906
x_vec( 361)=   0.66697
x_vec( 362)=   0.61050
x_vec( 363)=   0.32592
x_vec( 364)=   0.30976
x_vec( 365)=   0.63553
x_vec( 366)=   0.31940
x_vec( 367)=   0.32356
x_vec( 368)=   0.65964
x_vec( 369)=   0.31848
x_vec( 370)=   0.65336
x_vec( 371)=   0.63433
x_vec( 372)=   0.32334
x_vec( 373)=   0.45302
x_vec( 374)=   0.73454
x_vec( 375)=   0.31546
x_vec( 376)=   0.48074
x_vec( 377)=   0.73437
x_vec( 378)=   0.31343
x_vec( 379)=   0.68895
x_vec( 380)=   0.56071
x_vec( 381)=   0.32956
x_vec( 382)=   0.68887
x_vec( 383)=   0.51090
x_vec( 384)=   0.32980
x_vec( 385)=   0.53477
x_vec( 386)=   0.34418
x_vec( 387)=   0.33184
x_vec( 388)=   0.44267
x_vec( 389)=   0.31887
x_vec( 390)=   0.32527
x_vec( 391)=   0.31306
x_vec( 392)=   0.39319
x_vec( 393)=   0.31887
x_vec( 394)=   0.28771
x_vec( 395)=   0.48598
x_vec( 396)=   0.32058
x_vec( 397)=   0.39866
x_vec( 398)=   0.72909
x_vec( 399)=   0.31801
x_vec( 400)=   0.35540
x_vec( 401)=   0.70393
x_vec( 402)=   0.31817
x_vec( 403)=   0.62082
x_vec( 404)=   0.39383
x_vec( 405)=   0.33184
x_vec( 406)=   0.28755
x_vec( 407)=   0.58579
x_vec( 408)=   0.32101
x_vec( 409)=   0.49202
x_vec( 410)=   0.31939
x_vec( 411)=   0.33025
x_vec( 412)=   0.57790
x_vec( 413)=   0.36904
x_vec( 414)=   0.33227
x_vec( 415)=   0.28812
x_vec( 416)=   0.43625
x_vec( 417)=   0.32011
x_vec( 418)=   0.28746
x_vec( 419)=   0.53588
x_vec( 420)=   0.32062
x_vec( 421)=   0.62198
x_vec( 422)=   0.67827
x_vec( 423)=   0.31459
x_vec( 424)=   0.53519
x_vec( 425)=   0.72854
x_vec( 426)=   0.30985
x_vec( 427)=   0.68875
x_vec( 428)=   0.46122
x_vec( 429)=   0.33019
x_vec( 430)=   0.66377
x_vec( 431)=   0.41842
x_vec( 432)=   0.33098
x_vec( 433)=   0.57848
x_vec( 434)=   0.70348
x_vec( 435)=   0.31006
x_vec( 436)=   0.68881
x_vec( 437)=   0.61055
x_vec( 438)=   0.32883
x_vec( 439)=   0.31245
x_vec( 440)=   0.67866
x_vec( 441)=   0.31911
x_vec( 442)=   0.28777
x_vec( 443)=   0.63546
x_vec( 444)=   0.32068
x_vec( 445)=   0.44215
x_vec( 446)=   0.75369
x_vec( 447)=   0.31611
x_vec( 448)=   0.66437
x_vec( 449)=   0.65340
x_vec( 450)=   0.32429
x_vec( 451)=   0.49164
x_vec( 452)=   0.75351
x_vec( 453)=   0.31176
x_vec( 454)=   0.46561
x_vec( 455)=   0.40874
x_vec( 456)=   0.39543
x_vec( 457)=   0.37917
x_vec( 458)=   0.45816
x_vec( 459)=   0.39421
x_vec( 460)=   0.42224
x_vec( 461)=   0.43339
x_vec( 462)=   0.39488
x_vec( 463)=   0.43701
x_vec( 464)=   0.40869
x_vec( 465)=   0.39500
x_vec( 466)=   0.52317
x_vec( 467)=   0.40862
x_vec( 468)=   0.39586
x_vec( 469)=   0.39367
x_vec( 470)=   0.43344
x_vec( 471)=   0.39435
x_vec( 472)=   0.50861
x_vec( 473)=   0.43355
x_vec( 474)=   0.39540
x_vec( 475)=   0.56592
x_vec( 476)=   0.43359
x_vec( 477)=   0.39574
x_vec( 478)=   0.47968
x_vec( 479)=   0.43359
x_vec( 480)=   0.39544
x_vec( 481)=   0.55151
x_vec( 482)=   0.45855
x_vec( 483)=   0.39552
x_vec( 484)=   0.37902
x_vec( 485)=   0.50807
x_vec( 486)=   0.39429
x_vec( 487)=   0.39318
x_vec( 488)=   0.48315
x_vec( 489)=   0.39428
x_vec( 490)=   0.48022
x_vec( 491)=   0.38398
x_vec( 492)=   0.39585
x_vec( 493)=   0.37896
x_vec( 494)=   0.55788
x_vec( 495)=   0.39448
x_vec( 496)=   0.35033
x_vec( 497)=   0.50784
x_vec( 498)=   0.39409
x_vec( 499)=   0.56567
x_vec( 500)=   0.48351
x_vec( 501)=   0.39535
x_vec( 502)=   0.55173
x_vec( 503)=   0.40881
x_vec( 504)=   0.39613
x_vec( 505)=   0.35020
x_vec( 506)=   0.55790
x_vec( 507)=   0.39442
[...]

================================================================================

============== Orbital energy and occupancy information for spin 2 =============

      Total number of orbitals:    2254
        Occupancy sum (kernel):    1085.000000000
   Occupancy sum (eigenvalues):    1085.000000000
                 HOMO-LUMO gap:       0.001089349 Eh
                 Mid-gap level:      -0.093223077 Eh

                        Orbital | Energy (Eh) | Occupancy
                            1    -1.868505396   1.0000000
                        .......   ...........   .........
                         1076    -0.106882047   0.9831489
                         1077    -0.105201120   0.9669407
                         1078    -0.104465241   0.9626021
                         1079    -0.103235820   0.9424616
                         1080    -0.102057789   0.9291851
                         1081    -0.099510779   0.8304236
                         1082    -0.097778788   0.7646377
                         1083    -0.096896390   0.6810240
                         1084    -0.095106735   0.5574212
                         1085    -0.093767752   0.4709951
                        ....... -- gap at 0K -- .........
                         1086    -0.092678403   0.3583701
                         1087    -0.091381986   0.3106311
                         1088    -0.090834571   0.2413427
                         1089    -0.089133120   0.1564770
                         1090    -0.088870446   0.1708155
                         1091    -0.088299630   0.1269210
                         1092    -0.087677124   0.1096149
                         1093    -0.086905630   0.0832907
                         1094    -0.086585544   0.0852712
                         1095    -0.085852299   0.0642331
                        .......   ...........   .........
                         2254     0.739589932   0.0000000

================================================================================

===================== Writing canonical molecular orbitals =====================
    Spin 1
| Orbital  Energy (eV)  Norm     |
| HOMO     -2.55155035  1.000000 | Writing "ab_full_perfect_592nano_HOMO_UP.cube" ... done
| LUMO     -2.52190766  1.000000 | Writing "ab_full_perfect_592nano_LUMO_UP.cube" ... done
================================================================================

===================== Writing canonical molecular orbitals =====================
    Spin 2
| Orbital  Energy (eV)  Norm     |
| HOMO     -2.55155035  1.000000 | Writing "ab_full_perfect_592nano_HOMO_DN.cube" ... done
| LUMO     -2.52190766  1.000000 | Writing "ab_full_perfect_592nano_LUMO_DN.cube" ... done
================================================================================

================== Local Density of States (LDOS) calculation ==================
Writing "ab_full_perfect_592nano_UP_LDOS.txt" ... done
================================================================================

================== Local Density of States (LDOS) calculation ==================
Writing "ab_full_perfect_592nano_DN_LDOS.txt" ... done
================================================================================
 
=============== Density of States (DOS) calculation for UP spin ================
Writing "ab_full_perfect_592nano_UP_DOS.txt" ... done
================================================================================
 
============== Density of States (DOS) calculation for DOWN spin ===============
Writing "ab_full_perfect_592nano_DN_DOS.txt" ... done
================================================================================
 
Writing bands to file "ab_full_perfect_592nano.val_bands" ... done
 
================ Projected Density of States (pDOS) calculation ================
 
Constructing AM resolved functions  ...... done
Writing NGWF plot files in formats: CUBE ... done
 
Performing overlap integrals ... done
 
Computing pDOS weights ... done
 
All bands spilling parameter =   3.18 %
Occupancy-weighted spilling parameter =   0.81 %
 
 => Outputting data for OptaDOS <=
 
Writing pDOS weights to file "ab_full_perfect_592nano.val_pdos_bin" ... done
 
Writing band gradients to file "ab_full_perfect_592nano.val_dome_bin" ... done
 
Writing Castep output cell file to "ab_full_perfect_592nano-out.cell" ... done
 
 => Computing Gaussian smeared pDOS for UP spin<= 
Writing "ab_full_perfect_592nano_UP_PDOS.txt" ... done
 
 => Computing Gaussian smeared pDOS for DOWN spin<= 
Writing "ab_full_perfect_592nano_DN_PDOS.txt" ... done
 
 => Computing Occupancy-weighted Gaussian smeared pDOS for UP spin<= 
Writing "ab_full_perfect_592nano_occ_UP_PDOS.txt" ... done
  => Band centres for UP spin channel: 
 S band centre of group 1:  -18.724266 eV
 P band centre of group 1:   -8.215278 eV
  Band centres for UP spin channel done. <= 
  => Integrated number of electrons in each AM band for UP spin channel: 
 S num electrons of group 1:  308.404987
 P num electrons of group 1:  767.829286
  Integrated number of electrons for UP spin channel done. <= 
 
 => Computing Occupancy-weighted Gaussian smeared pDOS for DOWN spin<= 
Writing "ab_full_perfect_592nano_occ_DN_PDOS.txt" ... done
  => Band centres for DOWN spin channel: 
 S band centre of group 1:  -18.724266 eV
 P band centre of group 1:   -8.215278 eV
  Band centres for DOWN spin channel done. <=
  => Integrated number of electrons in each AM band for DOWN spin channel: 
 S num electrons of group 1:  308.404987
 P num electrons of group 1:  767.829286
  Integrated number of electrons for DOWN spin channel done. <=
================================================================================

================================= Core Density =================================
               Core den box size:   21 x  21 x  21
================================================================================

------------------------------ TIMING INFORMATION ------------------------------
AVERAGE TIME:    2693.894s on     64 proc(s)                                    
TOTAL TIME:      2693.897s on     64 proc(s)                                    
================= AVERAGE TIMINGS FROM ALL PROCS (CUMULATIVE) ==================
|| TAG                                    #calls    cpu time   %total  Gflops ||
|| work_imbalance                       :     1        0.00s   0.000%  ------ ||
|| paw_dij_hartree                      :    47        0.00s   0.000%  ------ ||
|| sparse_set_to_garbage                :    60        0.00s   0.000%  ------ ||
|| ewald_calculate_forces_realspace     :     2        0.00s   0.000%  ------ ||
|| ngwfs_initialise_from_radial         :     1        0.02s   0.001%  ------ ||
|| paw_sphere_density_on_grid           :     1        0.02s   0.001%  ------ ||
|| basis_extract_function_from_box      :   352        0.03s   0.001%  ------ ||
|| paw_tcore_density                    :     2        0.12s   0.004%  ------ ||
|| restart_hamiltonian_write            :     4        0.16s   0.006%  ------ ||
|| restart_hamiltonian_read             :     2        0.16s   0.006%  ------ ||
|| ewald_calculate_energy               :     2        0.20s   0.008%  ------ ||
|| augmentation_density_forces          :     2        0.21s   0.008%  ------ ||
|| paw_tcore_hartree_on_grid            :     2        0.29s   0.011%  ------ ||
|| restart_kernel_read                  :     2        0.31s   0.011%  ------ ||
|| paw_dataset_init                     :     3        0.37s   0.014%  ------ ||
|| restart_kernel_write                 :     4        0.39s   0.015%  ------ ||
|| ewald_calculate_forces_recipspace    :     2        0.42s   0.016%  ------ ||
|| ewald_calculate_forces               :     2        0.43s   0.016%  ------ ||
|| pseudo_make_structure_factor         :     2        0.45s   0.017%  ------ ||
|| augmentation_screen_dij              :    35        0.58s   0.022%  ------ ||
|| hartree_on_grid                      :    32        1.06s   0.039%  ------ ||
|| dense_normal_eigensolve              :     1        1.36s   0.051%  ------ ||
|| paw_tcore_hartree_calc_forces        :     2        1.45s   0.054%  ------ ||
|| sparse_init                          :     2        1.65s   0.061%  ------ ||
|| sparse_embed_hotelling_invert_embed  :     8        2.31s   0.086%  ------ ||
|| sparse_trace                         :   898        2.42s   0.090%  ------ ||
|| ngwf_gradient_coeffs                 :     4        2.51s   0.093%  ------ ||
|| paw_species_calc_proj_prec_mat       :     2        2.53s   0.094%  ------ ||
|| restart_ngwfs_tightbox_input         :     2        2.86s   0.106%  ------ ||
|| integrals_grad                       :     2        2.89s   0.107%  ------ ||
|| nonsc_forces_ngwfs_calc              :     2        2.90s   0.107%  ------ ||
|| paw_nlcc_calculate_forces            :     2        3.19s   0.119%  ------ ||
|| paw_dij_xc                           :    47        3.36s   0.125%  ------ ||
|| aug_nonlocal_mat                     :    41        4.04s   0.150%  ------ ||
|| sw_init                              :     1        4.20s   0.156%  ------ ||
|| basis_copy_function_to_box           :  4191        4.43s   0.165%  ------ ||
|| augmentation_density_on_grid         :    35        4.87s   0.181%  ------ ||
|| projectors_init_fftbox_recip         :    41        5.29s   0.196%  ------ ||
|| fourier_apply_box_pair               :   743        8.45s   0.314% 929.789 ||
|| function_ops_brappd_ketppd           :    17        8.61s   0.320%  ------ ||
|| projectors_func_grad_ovlp_box        :     6       13.71s   0.509%  ------ ||
|| aug_nl_calculate_forces              :     2       16.29s   0.605%  ------ ||
|| integrals_kinetic                    :     8       17.33s   0.643%  ------ ||
|| cell_grid_extract_box_real           :  2358       17.75s   0.659%  ------ ||
|| restart_ngwfs_tightbox_output        :     3       17.81s   0.661%  ------ ||
|| projectors_func_ovlp_box             :     9       18.07s   0.671%  ------ ||
|| fourier_apply_cell_forward           :  1222       18.41s   0.683% 231.076 ||
|| cell_grid_deposit_box_real           :  5862       20.28s   0.753%  ------ ||
|| basis_dot_function_with_box          : 1.300M      20.42s   0.758%  ------ ||
|| fourier_apply_cell_backward          :  1354       20.73s   0.770% 227.312 ||
|| sparse_product                       :  1364       24.25s   0.900%  ------ ||
|| dense_eigensolve                     :    38       31.27s   1.161%  ------ ||
|| edft_diag_ngwf_ham                   :    36       51.81s   1.923%  ------ ||
|| xc_energy_potential                  :    33       52.18s   1.937%  ------ ||
|| integrals_locpot_mat_els_batch       :    96       57.92s   2.150%  ------ ||
|| basis_add_function_to_box            : 2.990M      65.62s   2.436%  ------ ||
|| nlxc_vdw_energy                      :    66       68.94s   2.559%  ------ ||
|| density_fftbox_deposit_to_cell       :  2590       72.49s   2.691%  ------ ||
|| edft_apply_smearing_operator         :    18       78.31s   2.907%  ------ ||
|| density_batch_row_sums               :   105       94.00s   3.489%  ------ ||
|| hamiltonian_energy_components        :     2       98.28s   3.648%  ------ ||
|| forces_calculate                     :     2      101.55s   3.770%  ------ ||
|| eigenstates_pdos                     :     1      102.18s   3.793%  ------ ||
|| eigenstates_calculate                :     1      114.35s   4.245%  ------ ||
|| projectors_gradient_batch            :    12      120.65s   4.479%  ------ ||
|| potential_apply_to_ngwf_batch        :    96      240.57s   8.930%  ------ ||
|| properties_calculate                 :     1      264.06s   9.802%  ------ ||
|| integrals_locpot_dbl_grid            :    32      298.81s  11.092%  ------ ||
|| fourier_apply_box                    : 14687      362.47s  13.455%  1.320k ||
|| density_fftbox_interpolate_multiply  :  2590      371.29s  13.783%  ------ ||
|| density_batch_interp_deposit         :   105      524.07s  19.454%  ------ ||
|| hamiltonian_lhxc_calculate           :    29      606.48s  22.513%  ------ ||
|| projectors_grad_precond_batch        :    12      643.07s  23.871%  ------ ||
|| density_on_dbl_grid                  :    35      659.04s  24.464%  ------ ||
|| edft_calculate                       :     4      783.63s  29.089%  ------ ||
|| ngwf_gradient_build_batch            :    12      850.23s  31.561%  ------ ||
|| ngwf_gradient_batch                  :    12      934.50s  34.690%  ------ ||
|| ngwf_gradient_lnv                    :     4     1226.78s  45.539%  ------ ||
|| ngwf_cg_optimise                     :     2     2291.65s  85.068%  ------ ||
|| total_time                           :     1     2693.89s 100.000%  ------ ||
================================================================================
==================== AVERAGE TIMINGS FROM ALL PROCS (SELF) =====================
++ TAG                                    #calls    cpu time   %total  Gflops ++
++ nonsc_forces_ngwfs_calc              :     2        0.00s   0.000%  ------ ++
++ ewald_calculate_forces               :     2        0.00s   0.000%  ------ ++
++ work_imbalance                       :     1        0.00s   0.000%  ------ ++
++ paw_dij_hartree                      :    47        0.00s   0.000%  ------ ++
++ sparse_set_to_garbage                :    60        0.00s   0.000%  ------ ++
++ ewald_calculate_forces_realspace     :     2        0.00s   0.000%  ------ ++
++ paw_tcore_hartree_on_grid            :     2        0.01s   0.000%  ------ ++
++ paw_sphere_density_on_grid           :     1        0.02s   0.001%  ------ ++
++ ngwfs_initialise_from_radial         :     1        0.02s   0.001%  ------ ++
++ sparse_embed_hotelling_invert_embed  :     8        0.03s   0.001%  ------ ++
++ paw_nlcc_calculate_forces            :     2        0.03s   0.001%  ------ ++
++ ngwf_gradient_coeffs                 :     4        0.03s   0.001%  ------ ++
++ basis_extract_function_from_box      :   352        0.03s   0.001%  ------ ++
++ augmentation_density_forces          :     2        0.04s   0.001%  ------ ++
++ aug_nl_calculate_forces              :     2        0.05s   0.002%  ------ ++
++ paw_tcore_density                    :     2        0.11s   0.004%  ------ ++
++ hartree_on_grid                      :    32        0.11s   0.004%  ------ ++
++ aug_nonlocal_mat                     :    41        0.12s   0.005%  ------ ++
++ restart_hamiltonian_write            :     4        0.16s   0.006%  ------ ++
++ restart_hamiltonian_read             :     2        0.16s   0.006%  ------ ++
++ ewald_calculate_energy               :     2        0.20s   0.008%  ------ ++
++ restart_kernel_read                  :     2        0.31s   0.011%  ------ ++
++ integrals_locpot_dbl_grid            :    32        0.32s   0.012%  ------ ++
++ paw_dataset_init                     :     3        0.37s   0.014%  ------ ++
++ restart_kernel_write                 :     4        0.39s   0.015%  ------ ++
++ ewald_calculate_forces_recipspace    :     2        0.42s   0.016%  ------ ++
++ pseudo_make_structure_factor         :     2        0.45s   0.017%  ------ ++
++ augmentation_screen_dij              :    35        0.54s   0.020%  ------ ++
++ forces_calculate                     :     2        0.62s   0.023%  ------ ++
++ hamiltonian_energy_components        :     2        1.00s   0.037%  ------ ++
++ restart_ngwfs_tightbox_input         :     2        1.22s   0.045%  ------ ++
++ dense_normal_eigensolve              :     1        1.36s   0.051%  ------ ++
++ paw_tcore_hartree_calc_forces        :     2        1.42s   0.053%  ------ ++
++ integrals_grad                       :     2        1.43s   0.053%  ------ ++
++ augmentation_density_on_grid         :    35        1.60s   0.059%  ------ ++
++ sparse_init                          :     2        1.65s   0.061%  ------ ++
++ paw_species_calc_proj_prec_mat       :     2        2.27s   0.084%  ------ ++
++ sparse_trace                         :   898        2.42s   0.090%  ------ ++
++ paw_dij_xc                           :    47        3.36s   0.125%  ------ ++
++ sw_init                              :     1        4.20s   0.156%  ------ ++
++ basis_copy_function_to_box           :  4191        4.43s   0.165%  ------ ++
++ nlxc_vdw_energy                      :    66        4.65s   0.173%  ------ ++
++ edft_calculate                       :     4        5.16s   0.191%  ------ ++
++ projectors_init_fftbox_recip         :    41        5.29s   0.196%  ------ ++
++ projectors_func_grad_ovlp_box        :     6        7.65s   0.284%  ------ ++
++ fourier_apply_box_pair               :   743        8.45s   0.314% 929.789 ++
++ function_ops_brappd_ketppd           :    17        8.61s   0.320%  ------ ++
++ hamiltonian_lhxc_calculate           :    29        8.84s   0.328%  ------ ++
++ projectors_func_ovlp_box             :     9        8.97s   0.333%  ------ ++
++ xc_energy_potential                  :    33        9.65s   0.358%  ------ ++
++ eigenstates_calculate                :     1       10.21s   0.379%  ------ ++
++ integrals_kinetic                    :     8       12.24s   0.454%  ------ ++
++ cell_grid_extract_box_real           :  2358       17.75s   0.659%  ------ ++
++ restart_ngwfs_tightbox_output        :     3       17.80s   0.661%  ------ ++
++ fourier_apply_cell_forward           :  1222       18.41s   0.683% 231.076 ++
++ main_program_(onetep.F90)            :     1       18.78s   0.697%  ------ ++
++ cell_grid_deposit_box_real           :  5862       20.28s   0.753%  ------ ++
++ basis_dot_function_with_box          : 1.300M      20.42s   0.758%  ------ ++ (!) overhead: ~  10.6%
++ fourier_apply_cell_backward          :  1354       20.73s   0.770% 227.312 ++
++ edft_diag_ngwf_ham                   :    36       22.24s   0.826%  ------ ++
++ sparse_product                       :  1364       24.25s   0.900%  ------ ++
++ edft_apply_smearing_operator         :    18       24.77s   0.920%  ------ ++
++ dense_eigensolve                     :    38       31.27s   1.161%  ------ ++
++ density_on_dbl_grid                  :    35       40.97s   1.521%  ------ ++
++ ngwf_cg_optimise                     :     2       42.72s   1.586%  ------ ++
++ integrals_locpot_mat_els_batch       :    96       44.20s   1.641%  ------ ++
++ ngwf_gradient_build_batch            :    12       44.94s   1.668%  ------ ++
++ ngwf_gradient_batch                  :    12       51.70s   1.919%  ------ ++
++ density_fftbox_deposit_to_cell       :  2590       52.52s   1.949%  ------ ++
++ density_batch_row_sums               :   105       62.20s   2.309%  ------ ++
++ basis_add_function_to_box            : 2.990M      65.62s   2.436%  ------ ++ (!) overhead: ~   7.6%
++ properties_calculate                 :     1       71.31s   2.647%  ------ ++
++ eigenstates_pdos                     :     1       93.13s   3.457%  ------ ++
++ density_batch_interp_deposit         :   105      107.77s   4.001%  ------ ++
++ projectors_gradient_batch            :    12      114.02s   4.233%  ------ ++
++ potential_apply_to_ngwf_batch        :    96      124.63s   4.626%  ------ ++
++ density_fftbox_interpolate_multiply  :  2590      140.60s   5.219%  ------ ++
++ ngwf_gradient_lnv                    :     4      289.77s  10.756%  ------ ++
++ fourier_apply_box                    : 14687      362.47s  13.455%  1.320k ++
++ projectors_grad_precond_batch        :    12      636.83s  23.640%  ------ ++
================================================================================
(!) WARNING: You're wasting precious cycles calling timer. 
             Each pair of timer_clock calls itself cost   1.67 microseconds!
Overhead of generating timer report: 
- 0 ms averaging over threads,
- 4 ms ensuring consistency across MPI ranks,
- 1 ms printing in order.

Job completed: 24-03-2022 09:53 (+0000)

