 +---------------------------------------------------------------+
 |                                                               |
 |        ####### #     # ####### ####### ####### ######         |
 |        #     # ##    # #          #    #       #     #        |
 |        #     # # #   # #          #    #       #     #        |
 |        #     # #  #  # #####      #    #####   ######         |
 |        #     # #   # # #          #    #       #              |
 |        #     # #    ## #          #    #       #              |
 |        ####### #     # #######    #    ####### #              |
 |                                                               |
 |        Linear-Scaling Ab Initio Total Energy Program          |
 |                                                               |
 |          Release for academic collaborators of ODG            |
 |                                             Version 5.3.2.12  |
 |                                                               |
 +---------------------------------------------------------------+
 |                                                               |
 |  Authors:                                                     |
 |  Jacek Dziedzic, Peter D. Haynes, Nicholas D. M. Hine,        |
 |  Arash. A. Mostofi, Mike C. Payne and Chris-Kriton Skylaris   |
 |                                                               |
 |  Contributors:                                                |
 |  J. Aarons, L. Andrinopoulos, P. W. Avraam, R. A. Bell,       |
 |  A. Bhandari, G. A. Bramley, R. J. Charlton, S. J. Clark,     |
 |  R. J. Clements, G. C. Constantinescu, F. Corsetti,           |
 |  N. Corsini, O. Dieguez, S. M. M. Dubois, K. K. B. Duff,      |
 |  J. M. Escartin, A. Greco, H. Helal, Q. O. Hill, L. P. Lee,   |
 |  J.-H. Li, E. B. Linscott, G. Moynihan, D. D. O`Regan,        |
 |  O. K. Okan, M. J. S. Phipps, C. J. Pickard,                  |
 |  J. C. A. Prentice, M. I. J. Probert, L. E. Ratcliff,         |
 |  M. Robinson, A. Ruiz Serrano, J. S. Spencer, E. W. Tait,     |
 |  G. Teobaldi, D. Turban, V. Vitale, K. A. Wilkinson,          |
 |  C. Weber, J. C. Womack, N. Yeung and T. J. Zuehlsdorff       |
 |                                                               |
 |                                   Copyright (c) 2004-2020     |
 |                                                               |
 |  Please cite:                                                 |
 |  "Introducing ONETEP: Linear-scaling density functional       |
 |   simulations on parallel computers".                         |
 |   C.-K. Skylaris, P. D. Haynes, A. A. Mostofi, M. C. Payne.   |
 |   J. Chem. Phys. 122 084119 (2005).                           |
 |                                                               |
 |          in all publications arising from your use of ONETEP. |
 |                                                               |
 +---------------------------------------------------------------+
 |                                                               |
 |   ONETEP is based on developments described in the following  |
 |   publications:                                               |
 |                                                               |
 |  "Nonorthogonal generalized Wannier function pseudopotential  |
 |   plane-wave method".                                         |
 |   C.-K. Skylaris, A. A. Mostofi, P. D. Haynes, O. Dieguez,    |
 |   M. C. Payne.                                                |
 |   Phys. Rev. B 66 035119 (2002).                              |
 |                                                               |
 |  "Preconditioned iterative minimization for linear-scaling    |
 |   electronic structure calculations".                         |
 |   A. A. Mostofi, P. D. Haynes, C.-K. Skylaris, M. C. Payne.   |
 |   J. Chem. Phys. 119(17), pp.8842-8848 (2003).                |
 |                                                               |
 |  "Total-energy calculations on a real space grid with         |
 |   localized functions and a plane-wave basis".                |
 |   A. A. Mostofi, C.-K. Skylaris, P. D. Haynes, M. C. Payne.   |
 |   Comput. Phys. Commun. 147, pp.788-802 (2002).               |
 |                                                               |
 |  "Accurate kinetic energy evaluation in electronic structure  |
 |   calculations with localized functions on real space grids"  |
 |   C.-K. Skylaris, A. A. Mostofi, P. D. Haynes, C. J. Pickard, |
 |   M. C. Payne.                                                |
 |   Comput. Phys. Commun. 140, pp.315-322 (2001).               |
 |                                                               |
 |  "Accurate ionic forces and geometry optimization in linear-  |
 |   scaling density-functional theory with local orbitals"      |
 |   N. D. M. Hine, M. Robinson, P. D. Haynes, C.-K. Skylaris,   |
 |   M. C. Payne, and A. A. Mostofi.                             |
 |   Phys. Rev. B 83 195102 (2011).                              |
 |                                                               |
 +---------------------------------------------------------------+

Job started: 06-09-2020 23:37 (+0100)
 
Reading parameters from file "18/592nano.dat" ...... done

If your calculation crashes here, before "Checking processes and threads..."
is displayed, then your stack size is insufficient.
If so, use "ulimit -s unlimited" at runtime.
You can disable this check with "check_stack_size F".

Checking processes and threads...
   Determining the default number of threads...
      No default threads set at compilation time: defaulting to 1.
      OpenMP library call suggests 4 threads.
      Hybrid MPI-OpenMP compilation detected.
      Number of MPI processes > 1.
      OMP_NUM_THREADS environment variable present and
      its value matches the one obtained from the OpenMP library call.
      Using this value as default.
      Default threads: 4
      Default applies to threads_max and threads_num_fftboxes.
      Settings in the input file override this default.
   ... done

   Running with 160 MPI processes.
   There are 10 MPI processes running on the same node as the root process.
   Each MPI process is using: 
               1 threads for simulation cell FFTs.
               1 threads for parallel FFT box operations.
               4 threads for loops over batched FFT box operations.
               4 threads in other parallel regions.
... done

Basic input checks...
Resetting ngwf_cg_rotate to TRUE for EDFT calculations
... done

Reading geometry and species blocks from file "18/592nano.dat" ...    
  Number of PPD points along a3 set to 1.  This is 
  the default value, it may have been provided also in the input file.
... done
 Writing xyz coordinates to file "18/592nano.xyz" ... done


--------------------------------------------------------------------------------
---------------------------------- INPUT FILE ----------------------------------
--------------------------------------------------------------------------------

task : singlepoint                                                              
do_properties : true                                                            
ddec_classical_hirshfeld T                                                      
dx_format T                                                                     
edft T                                                                          
edft_spin_fix 3                                                                 
output_detail VERBOSE                                                           
write_xyz T                                                                     
dispersion 4                                                                    
xc_functional PBE                                                               
cutoff_energy 830 eV                                                            
paw T                                                                           
geom_disp_tol 0.015 bohr                                                        
geom_energy_tol 1.5E-6 hartree                                                  
geom_force_tol 0.003 "ha/bohr"                                                  
EDFT_MAXIT 30                                                                   
pdos_max_l = 2                                                                  
dos_smear  0.1 eV                                                               
popn_calculate T                                                                
PDOS_PSEUDOATOMIC T                                                             
PDOS_REDUCE_SWS F                                                               
PDOS_CONSTRUCT_BASIS F                                                          
PDOS_LOWDIN T                                                                   
PDOS_ORTH_ATOM_BLOCKS F                                                         
PDOS_LCAO_OPTIMIZE F                                                            
pdos_optados_output T                                                           
homo_plot 0                                                                     
lumo_plot 0                                                                     
homo_dens_plot -1                                                               
lumo_dens_plot -1                                                               
%BLOCK SPECIES                                                                  
C C 6 4 9.0                                                                     
H H 1 1 9.0                                                                     
Li Li 3 5 9.0                                                                   
%ENDBLOCK SPECIES                                                               
%BLOCK SPECIES_POT                                                              
C "~/pp/paw/c_pbe_abinit.paw"                                                   
H "~/pp/paw/h_pbe_abinit.paw"                                                   
Li "~/pp/paw/li_pbe_abinit.paw"                                                 
%ENDBLOCK SPECIES_POT                                                           
%BLOCK SPECIES_ATOMIC_SET                                                       
C "SOLVE conf=2s2 2p2"                                                          
H "SOLVE conf=1s1"                                                              
Li "SOLVE conf=1s2 2s1 2p0"                                                     
%ENDBLOCK SPECIES_ATOMIC_SET                                                    
%BLOCK SPECIES_LDOS_GROUPS                                                      
C                                                                               
H                                                                               
Li                                                                              
%ENDBLOCK SPECIES_LDOS_GROUPS                                                   
%BLOCK LATTICE_CART                                                             
94.486315650000      0.000000000000       0.000000000000                        
0.000000000000       94.486315650000      0.000000000000                        
0.000000000000       0.000000000000       94.486315650000                       
%ENDBLOCK LATTICE_CART                                                          
%BLOCK POSITIONS_ABS                                                            
C 45.462178 50.695206 30.775054                                                 
C 45.465909 50.613610 36.839872                                                 
C 46.797898 53.031966 30.730679                                                 
C 48.155062 50.605201 36.833279                                                 
C 49.511675 48.382541 30.754210                                                 
C 49.493820 48.269563 36.808462                                                 
C 50.846778 50.719080 30.721668                                                 
C 52.184804 48.263545 36.768355                                                 
C 45.442360 55.353981 30.647142                                                 
C 45.477422 55.273757 36.851097                                                 
C 46.780119 57.691265 30.500181                                                 
C 48.166636 55.264755 36.857886                                                 
C 49.493059 53.042159 30.698294                                                 
C 49.503258 52.931403 36.840526                                                 
C 50.830237 55.375637 30.559796                                                 
C 52.196811 52.922230 36.825935                                                 
C 45.425188 50.458216 42.995333                                                 
C 45.375687 50.394713 49.044541                                                 
C 46.771745 52.786572 43.015194                                                 
C 48.068707 50.409278 49.082444                                                 
C 49.460843 48.130821 42.974112                                                 
C 49.423125 48.076612 49.109042                                                 
C 50.807449 50.458739 42.982394                                                 
C 52.116699 48.096318 49.249646                                                 
C 45.425851 55.117245 43.043161                                                 
C 45.356830 55.064808 49.118934                                                 
C 46.768750 57.446961 43.078570                                                 
C 48.047368 55.082098 49.153697                                                 
C 49.461619 52.785232 43.023419                                                 
C 49.399028 52.755003 49.145602                                                 
C 50.808226 55.116123 43.061416                                                 
C 52.092284 52.778857 49.268385                                                 
C 57.595386 48.414338 30.580813                                                 
C 57.560808 48.246706 36.651309                                                 
C 58.930126 50.741159 30.496695                                                 
C 60.280136 48.245268 36.580791                                                 
C 57.540061 48.149906 42.737155                                                 
C 57.482701 48.136251 49.714145                                                 
C 58.894138 50.470770 42.697332                                                 
C 60.210124 48.159049 49.928378                                                 
C 53.540866 50.727959 30.653451                                                 
C 53.532906 50.590088 36.773799                                                 
C 54.876518 53.057076 30.528681                                                 
C 56.227592 50.581946 36.720652                                                 
C 53.502787 50.463097 42.942732                                                 
C 53.444101 50.446370 49.358552                                                 
C 54.845798 52.787827 42.968227                                                 
C 56.127502 50.466424 49.607813                                                 
C 57.616498 43.769994 30.570230                                                 
C 57.552680 43.590060 36.602829                                                 
C 58.946633 46.090510 30.558304                                                 
C 60.266366 43.604922 36.540592                                                 
C 57.547862 43.496399 42.658652                                                 
C 57.516825 43.464922 49.828096                                                 
C 58.894216 45.821559 42.634026                                                 
C 60.220501 43.500206 50.117954                                                 
C 53.561436 46.076195 30.663507                                                 
C 53.522132 45.931168 36.716036                                                 
C 54.895873 48.404839 30.647185                                                 
C 56.217686 45.928005 36.656291                                                 
C 53.496683 45.808298 42.862320                                                 
C 53.470509 45.772543 49.365853                                                 
C 54.850162 48.139303 42.854191                                                 
C 56.161740 45.805050 49.610668                                                 
C 57.560782 57.689639 30.035609                                                 
C 57.593422 57.559009 37.003137                                                 
C 58.889837 60.042832 29.691376                                                 
C 60.325122 57.520016 36.989250                                                 
C 57.545452 57.449654 43.031571                                                 
C 57.455610 57.487504 49.611238                                                 
C 58.888181 59.786269 43.130516                                                 
C 60.160812 57.474084 49.742408                                                 
C 45.397954 64.670905 30.004194                                                 
C 45.506955 64.606036 36.918513                                                 
C 46.752545 67.011574 29.912079                                                 
C 48.185898 64.603864 36.965848                                                 
C 49.443826 62.343840 30.009356                                                 
C 49.538909 62.254328 36.998419                                                 
C 50.799646 64.708579 29.707433                                                 
C 52.235758 62.244560 37.083191                                                 
C 45.406144 64.442696 42.940988                                                 
C 45.297154 64.372990 49.804431                                                 
C 46.780329 66.781574 42.733646                                                 
C 47.985018 64.394840 49.832997                                                 
C 49.449077 62.108775 43.005159                                                 
C 49.363761 62.081672 49.588035                                                 
C 50.809821 64.465823 42.955683                                                 
C 52.052945 62.112613 49.683511                                                 
C 53.511434 60.024824 30.079633                                                 
C 53.562297 59.905931 37.028929                                                 
C 54.857863 62.386613 29.830242                                                 
C 56.263022 59.890985 37.107538                                                 
C 53.491274 59.757808 42.965798                                                 
C 53.410763 59.795857 49.521422                                                 
C 54.850776 62.111523 42.864580                                                 
C 56.116410 59.803988 49.633629                                                 
C 57.576974 53.057298 30.438640                                                 
C 57.577241 52.905052 36.755232                                                 
C 58.913931 55.381953 30.222229                                                 
C 60.303836 52.887985 36.698491                                                 
C 57.543810 52.795710 42.842549                                                 
C 57.450208 52.819695 49.742074                                                 
C 58.895875 55.141658 42.897253                                                 
C 60.172496 52.828787 50.065396                                                 
C 45.422934 60.006897 30.341284                                                 
C 45.489299 59.934084 36.890485                                                 
C 46.759290 62.342336 30.127349                                                 
C 48.182458 59.923490 36.910474                                                 
C 49.475750 57.698956 30.445492                                                 
C 49.519232 57.593074 36.894188                                                 
C 50.814016 60.025882 30.193797                                                 
C 52.211056 57.582502 36.927042                                                 
C 45.423555 59.776084 43.077688                                                 
C 45.330843 59.727714 49.339315                                                 
C 46.770543 62.109107 43.028552                                                 
C 48.027621 59.749634 49.364446                                                 
C 49.457432 57.445101 43.075778                                                 
C 49.385539 57.428551 49.248799                                                 
C 50.800268 59.775221 43.026561                                                 
C 52.074851 57.453172 49.322571                                                 
C 53.521745 55.378134 30.455897                                                 
C 53.546871 55.244394 36.872821                                                 
C 54.857122 57.709171 30.203811                                                 
C 56.241437 55.227523 36.865040                                                 
C 53.495924 55.114018 43.040307                                                 
C 53.424625 55.120127 49.343259                                                 
C 54.843253 57.447259 43.024568                                                 
C 56.115308 55.139774 49.545823                                                 
H 27.307288 41.283644 30.292988                                                 
H 28.250218 39.623963 36.455176                                                 
H 27.232550 41.158283 42.284619                                                 
H 28.215187 39.306313 50.047855                                                 
H 41.849051 30.292695 29.430436                                                 
C 42.876062 32.083936 29.530257                                                 
H 44.434722 30.198170 37.236153                                                 
H 41.727355 30.020927 42.990746                                                 
C 42.759114 31.816283 42.990784                                                 
H 44.429193 29.967615 49.343525                                                 
H 29.641941 37.263204 29.757730                                                 
C 30.656944 39.060908 29.880737                                                 
H 32.257404 37.285005 36.891270                                                 
H 33.702873 34.961698 29.323154                                                 
C 34.734276 36.745519 29.495494                                                 
H 29.541900 37.094755 42.435689                                                 
C 30.577118 38.883121 42.508352                                                 
H 32.286600 36.956337 50.186314                                                 
H 33.577865 34.708185 42.522792                                                 
C 34.621236 36.490278 42.628450                                                 
H 37.781257 32.627500 29.213076                                                 
C 38.800749 34.415011 29.412494                                                 
H 40.372386 32.545554 37.187766                                                 
H 37.675269 32.337860 42.330002                                                 
C 38.685185 34.127613 42.565632                                                 
H 40.411806 32.300921 50.094427                                                 
H 46.532984 30.303042 29.627354                                                 
H 46.410491 30.069133 43.275473                                                 
H 25.932381 48.341996 36.406255                                                 
C 28.001984 48.339342 36.470029                                                 
H 25.847127 48.055234 50.337460                                                 
C 27.908308 48.061736 50.182792                                                 
H 25.921999 43.681278 36.313827                                                 
H 27.287120 45.936004 30.500251                                                 
C 27.988499 43.661901 36.420649                                                 
H 25.860401 43.360937 50.150440                                                 
H 27.229196 45.840494 42.365096                                                 
C 27.925484 43.366526 50.096269                                                 
H 25.952930 57.671972 36.865941                                                 
H 27.216157 59.916425 29.807203                                                 
C 28.021344 57.673017 36.912752                                                 
H 25.829489 57.428522 49.895141                                                 
H 27.278852 59.851980 43.202452                                                 
C 27.893855 57.440230 49.780201                                                 
H 25.940143 53.013784 36.555936                                                 
H 27.231359 55.245718 30.202516                                                 
C 28.010100 53.005907 36.593090                                                 
H 25.846455 52.754931 50.248589                                                 
H 27.272960 55.222033 42.650888                                                 
C 27.908059 52.747232 50.097175                                                 
C 29.371533 41.281724 30.172119                                                 
C 29.271684 41.420780 36.494271                                                 
C 30.652377 43.664433 30.311675                                                 
C 31.973954 41.342314 36.652688                                                 
C 33.365952 39.008853 29.747001                                                 
C 33.309152 39.066570 36.833397                                                 
C 34.707604 41.366526 30.023159                                                 
C 35.986674 38.982841 37.025721                                                 
C 29.355120 45.948690 30.454039                                                 
C 29.284191 46.036297 36.485995                                                 
C 30.628419 48.295329 30.487054                                                 
C 31.998396 46.009138 36.585247                                                 
C 33.365659 43.664822 30.283300                                                 
C 33.326014 43.688233 36.665113                                                 
C 34.702888 45.995192 30.460837                                                 
C 36.023984 43.661637 36.764410                                                 
C 29.293939 41.142485 42.433348                                                 
C 29.241985 41.100187 50.035630                                                 
C 30.585250 43.520042 42.468375                                                 
C 31.935414 41.032926 49.977830                                                 
C 33.267531 38.794033 42.591514                                                 
C 33.316598 38.745564 50.042144                                                 
C 34.617475 41.155421 42.714834                                                 
C 35.976053 38.702421 50.052810                                                 
C 29.288327 45.842922 42.553900                                                 
C 29.203594 45.748629 50.085169                                                 
C 30.579566 48.176236 42.646179                                                 
C 31.928321 45.729150 49.884043                                                 
C 33.293470 43.491455 42.690094                                                 
C 33.275514 43.397611 49.838037                                                 
C 34.643397 45.830568 42.822279                                                 
C 35.983964 43.386214 49.651495                                                 
C 41.472299 39.053975 30.028753                                                 
C 41.402393 38.970924 36.902710                                                 
C 42.807443 41.369968 30.338580                                                 
C 44.091840 38.960235 36.899640                                                 
C 41.358880 38.798604 42.976043                                                 
C 41.408978 38.726417 49.614188                                                 
C 42.708170 41.132274 43.033940                                                 
C 44.081680 38.716256 49.427111                                                 
C 37.424055 41.362583 30.082154                                                 
C 37.359158 41.336053 36.880366                                                 
C 38.763110 43.687033 30.398860                                                 
C 40.061527 41.305963 36.863461                                                 
C 37.329450 41.140499 42.859181                                                 
C 37.337289 41.065281 49.747225                                                 
C 38.680652 43.475622 42.960071                                                 
C 40.031998 41.049232 49.532040                                                 
C 41.453043 34.380284 29.557688                                                 
C 41.403983 34.330592 37.030905                                                 
C 42.828921 36.726258 29.832011                                                 
C 44.066359 34.287121 37.171078                                                 
C 41.359938 34.102951 42.795892                                                 
C 41.433376 34.092772 49.863524                                                 
C 42.707794 36.452971 42.972661                                                 
C 44.091482 34.039908 49.616506                                                 
C 37.426622 36.682191 29.528126                                                 
C 37.356493 36.684533 36.972512                                                 
C 38.783330 39.046594 29.859186                                                 
C 40.023909 36.615394 36.949044                                                 
C 37.297876 36.416143 42.660902                                                 
C 37.368735 36.408876 49.916597                                                 
C 38.669360 38.795036 42.859215                                                 
C 40.065859 36.374205 49.933798                                                 
C 41.434107 48.343900 30.718541                                                 
C 41.426459 48.296565 36.814638                                                 
C 42.769522 50.682745 30.754126                                                 
C 44.117916 48.285602 36.831728                                                 
C 41.385002 48.131880 42.998502                                                 
C 41.344916 48.048064 49.115692                                                 
C 42.733605 50.459593 42.996261                                                 
C 44.038927 48.052138 49.056142                                                 
C 29.299716 55.255292 30.219699                                                 
C 29.303408 55.297234 36.749070                                                 
C 30.578077 57.555454 30.019703                                                 
C 32.019724 55.310176 36.802642                                                 
C 33.330482 52.958303 30.451466                                                 
C 33.360968 52.978384 36.706300                                                 
C 34.666911 55.279485 30.359846                                                 
C 36.058451 52.974054 36.759807                                                 
C 29.339363 55.203752 42.758085                                                 
C 29.194350 55.062818 49.886550                                                 
C 30.633694 57.493168 43.013654                                                 
C 31.909084 55.071401 49.649050                                                 
C 33.333048 52.835965 42.787534                                                 
C 33.259856 52.716445 49.604314                                                 
C 34.672827 55.152819 42.953941                                                 
C 35.950743 52.711264 49.342101                                                 
C 37.382063 50.656914 30.634036                                                 
C 37.396676 50.642223 36.752440                                                 
C 38.716932 52.990705 30.626284                                                 
C 40.088902 50.631467 36.800563                                                 
C 37.351577 50.474730 42.941831                                                 
C 37.297035 50.380145 49.277308                                                 
C 38.701637 52.801417 42.981267                                                 
C 39.990631 50.380408 49.132350                                                 
C 41.452492 43.689726 30.496346                                                 
C 41.415071 43.634277 36.824851                                                 
C 42.789079 46.023796 30.673312                                                 
C 44.106424 43.621389 36.825628                                                 
C 41.370063 43.467794 43.014600                                                 
C 41.364389 43.380282 49.287220                                                 
C 42.725254 45.799316 43.012573                                                 
C 44.061268 43.379649 49.170142                                                 
C 29.329311 50.606861 30.463362                                                 
C 29.291691 50.669823 36.543171                                                 
C 30.600409 52.932972 30.385396                                                 
C 32.012242 50.661443 36.613611                                                 
C 33.352253 48.304745 30.521617                                                 
C 33.348578 48.333379 36.630908                                                 
C 34.685612 50.641121 30.556840                                                 
C 36.046263 48.319701 36.709592                                                 
C 29.306930 50.516521 42.568334                                                 
C 29.193019 50.384610 50.081259                                                 
C 30.612944 52.849733 42.567735                                                 
C 31.924727 50.385265 49.806116                                                 
C 33.308052 48.159185 42.775137                                                 
C 33.275946 48.059078 49.690925                                                 
C 34.659856 50.485275 42.841159                                                 
C 35.958406 48.049677 49.435492                                                 
C 37.404260 46.004278 30.525951                                                 
C 37.383877 45.988908 36.752562                                                 
C 38.738378 48.333261 30.653622                                                 
C 40.075573 45.970865 36.801753                                                 
C 37.339295 45.815360 42.933928                                                 
C 37.315585 45.716773 49.417108                                                 
C 38.689358 48.138013 42.971812                                                 
C 40.006530 45.713055 49.249559                                                 
C 45.496054 32.091290 29.642011                                                 
C 45.480862 31.980916 37.174480                                                 
C 46.905411 34.390564 29.769862                                                 
C 48.082275 31.967654 37.173576                                                 
H 49.106753 30.171561 37.219080                                                 
H 50.608262 32.672253 29.495977                                                 
C 45.519999 36.730353 29.939115                                                 
C 45.452027 36.620910 37.001136                                                 
C 46.868889 39.069402 30.199410                                                 
C 48.139743 36.603179 36.979357                                                 
C 49.571095 34.447576 29.749867                                                 
C 49.509716 34.255578 37.157122                                                 
C 50.946790 36.753311 29.893202                                                 
C 52.186770 34.287418 37.196963                                                 
C 45.357754 31.842261 43.124274                                                 
C 45.476372 31.747081 49.491718                                                 
C 46.739189 34.136553 42.993447                                                 
C 48.078743 31.737080 49.575476                                                 
H 49.116597 29.950575 49.463332                                                 
H 50.418861 32.390315 42.723083                                                 
C 45.385504 36.468251 43.001821                                                 
C 45.442119 36.374650 49.504236                                                 
C 46.748249 38.806719 42.964606                                                 
C 48.122182 36.371750 49.564447                                                 
C 49.394063 34.191622 42.796240                                                 
C 49.475608 34.026247 49.802268                                                 
C 50.778930 36.462704 42.680057                                                 
C 52.154353 34.066578 50.022424                                                 
H 53.215384 32.499872 37.357235                                                 
H 53.190295 32.280270 50.139955                                                 
C 57.630986 39.152808 30.492550                                                 
C 57.563109 38.915214 36.602309                                                 
C 58.968894 41.421592 30.531774                                                 
C 60.268779 38.985648 36.515801                                                 
C 57.526456 38.852768 42.571377                                                 
C 57.548560 38.774213 50.082607                                                 
C 58.894067 41.141849 42.598621                                                 
C 60.238139 38.869231 50.207093                                                 
C 45.483164 46.035001 30.711707                                                 
C 45.456592 45.952535 36.823897                                                 
C 46.817535 48.369076 30.770517                                                 
C 48.147327 45.942994 36.807852                                                 
C 49.532750 43.725431 30.613137                                                 
C 49.488991 43.605930 36.783481                                                 
C 50.868030 46.061183 30.699957                                                 
C 52.177698 43.601768 36.728663                                                 
C 45.417070 45.799089 43.008361                                                 
C 45.396052 45.722341 49.075189                                                 
C 46.768513 48.126935 42.991329                                                 
C 48.091603 45.733971 49.088926                                                 
C 49.455051 43.470750 42.953523                                                 
C 49.451232 43.398629 49.178647                                                 
C 50.807087 45.800607 42.941545                                                 
C 52.137945 43.421319 49.327819                                                 
C 53.595719 41.425917 30.487309                                                 
C 53.527609 41.265832 36.705246                                                 
C 54.922008 43.750224 30.592808                                                 
C 56.220402 41.273711 36.633315                                                 
C 53.497492 41.153354 42.741822                                                 
C 53.490193 41.089878 49.571772                                                 
C 54.839736 43.477852 42.766777                                                 
C 56.196225 41.123970 49.826809                                                 
H 57.273227 34.858955 36.737618                                                 
H 58.675357 37.366858 30.493003                                                 
H 57.256515 34.694105 50.293090                                                 
H 58.578792 37.080817 42.397595                                                 
C 45.506573 41.379199 30.413097                                                 
C 45.447438 41.287915 36.843468                                                 
C 46.841273 43.710215 30.603870                                                 
C 48.143537 41.276278 36.818427                                                 
C 49.557498 39.089603 30.198219                                                 
C 49.495155 38.941999 36.861847                                                 
C 50.896470 41.405151 30.450017                                                 
C 52.189769 38.936298 36.814315                                                 
C 45.405044 41.140697 43.023939                                                 
C 45.420213 41.051951 49.234093                                                 
C 46.758922 43.464864 43.008429                                                 
C 48.117344 41.052996 49.236394                                                 
C 49.424969 38.817826 42.831947                                                 
C 49.468643 38.722943 49.451437                                                 
C 50.797991 41.140991 42.858638                                                 
C 52.155854 38.738411 49.647457                                                 
C 53.604035 36.805124 30.138848                                                 
C 53.568394 36.578658 36.936856                                                 
C 54.968781 39.088007 30.389415                                                 
C 56.227689 36.645567 36.741986                                                 
C 53.472435 36.496802 42.779205                                                 
C 53.529054 36.367810 49.965854                                                 
C 54.866063 38.791330 42.570059                                                 
C 56.203900 36.461826 50.095440                                                 
H 61.290483 37.186870 36.483132                                                 
H 62.696935 39.696629 30.489357                                                 
H 61.267414 37.080877 50.325236                                                 
H 62.607396 39.417001 42.548128                                                 
H 28.290772 61.692126 37.376923                                                 
H 28.164609 61.460249 49.445103                                                 
C 29.283309 59.932383 29.805989                                                 
C 29.312330 59.904032 37.189206                                                 
C 30.576106 62.191724 29.646182                                                 
C 32.028770 59.974344 37.263247                                                 
C 33.312631 57.601494 30.094835                                                 
C 33.364114 57.617952 36.994382                                                 
C 34.643528 59.930607 29.943435                                                 
C 36.067828 57.633556 36.935791                                                 
H 29.538686 63.974445 29.508534                                                 
H 32.351606 64.037395 37.433448                                                 
C 33.291470 62.292610 29.692561                                                 
C 33.385482 62.255746 37.245939                                                 
C 34.624591 64.573414 29.594881                                                 
C 36.056619 62.317497 37.140466                                                 
C 29.345620 59.866677 43.200838                                                 
C 29.184282 59.663476 49.536764                                                 
C 30.639984 62.097213 43.339728                                                 
C 31.888374 59.734486 49.421474                                                 
C 33.341774 57.497728 43.057115                                                 
C 33.239005 57.382139 49.433816                                                 
C 34.680367 59.806685 43.191092                                                 
C 35.928418 57.381512 49.298603                                                 
H 29.622689 63.894367 43.463952                                                 
H 32.187498 63.788313 49.303733                                                 
C 33.343445 62.166404 43.307899                                                 
C 33.224529 61.998669 49.330672                                                 
C 34.690365 64.430995 43.346338                                                 
C 35.892437 62.059559 49.339609                                                 
C 41.390893 57.662698 30.459034                                                 
C 41.445834 57.618055 36.874836                                                 
C 42.726726 59.990721 30.316705                                                 
C 44.137923 57.612099 36.865567                                                 
C 41.395575 57.456230 43.070595                                                 
C 41.309123 57.383978 49.190126                                                 
C 42.737702 59.783081 43.090228                                                 
C 43.998939 57.394812 49.195596                                                 
C 37.344220 59.955766 30.096669                                                 
C 37.408540 59.952727 37.015678                                                 
C 38.670258 62.290966 29.937691                                                 
C 40.103584 59.952194 36.963872                                                 
C 37.368223 59.802595 43.166991                                                 
C 37.258144 59.703288 49.285940                                                 
C 38.709392 62.126726 43.204027                                                 
C 39.949190 59.711916 49.283470                                                 
C 41.414147 53.005838 30.694845                                                 
C 41.437178 52.956471 36.821725                                                 
C 42.749003 55.339901 30.627636                                                 
C 44.128475 52.948227 36.839834                                                 
C 41.392447 52.794228 43.000688                                                 
C 41.326049 52.715555 49.091098                                                 
C 42.738583 55.121324 43.030591                                                 
C 44.021279 52.725552 49.066215                                                 
C 37.362030 55.305761 30.469714                                                 
C 37.408248 55.296578 36.830259                                                 
C 38.697391 57.644166 30.360168                                                 
C 40.097963 55.291748 36.834020                                                 
C 37.366600 55.138026 43.014866                                                 
C 37.284289 55.043629 49.239965                                                 
C 38.709568 57.463213 43.085621                                                 
C 39.971518 55.047078 49.147758                                                 
C 41.336726 67.002675 29.799172                                                 
C 41.502450 66.923025 37.038526                                                 
C 42.743039 69.309312 29.859376                                                 
C 44.149418 66.946084 36.898667                                                 
C 41.360654 66.797185 43.099444                                                 
C 41.252799 66.670554 49.830286                                                 
C 42.774966 69.099373 42.969521                                                 
C 43.886240 66.709741 50.008072                                                 
H 37.634801 68.736093 29.592741                                                 
H 40.483413 68.722607 37.113152                                                 
H 37.699387 68.562201 43.271977                                                 
H 40.211493 68.455503 49.920248                                                 
C 41.366944 62.310438 30.063797                                                 
C 41.465903 62.276484 37.029162                                                 
C 42.717885 64.661555 29.950665                                                 
C 44.148686 62.274693 36.936440                                                 
C 41.389806 62.119813 43.132095                                                 
C 41.280463 62.040207 49.443371                                                 
C 42.731654 64.451233 43.060102                                                 
C 43.959804 62.042984 49.515094                                                 
H 33.576242 66.348162 29.431988                                                 
H 33.658816 66.224356 43.417950                                                 
C 37.290041 64.651455 29.697026                                                 
C 37.433754 64.596551 37.187507                                                 
C 38.669966 66.948993 29.689072                                                 
C 40.106156 64.643548 37.208765                                                 
C 37.352615 64.484686 43.278503                                                 
C 37.246559 64.337136 49.438485                                                 
C 38.728476 66.766601 43.233504                                                 
C 39.894891 64.390966 49.564333                                                 
C 61.679459 41.496630 30.500018                                                 
C 61.554811 41.223634 36.494067                                                 
C 62.965871 43.733218 30.469471                                                 
H 63.621333 41.246023 36.450667                                                 
C 61.664654 46.111450 30.497331                                                 
C 61.553544 45.896892 36.521704                                                 
C 62.945837 48.411519 30.448819                                                 
H 63.620974 45.893239 36.465671                                                 
H 65.034012 43.754086 30.425971                                                 
C 61.589917 41.213197 42.567151                                                 
C 61.520426 41.130866 50.214190                                                 
C 62.907231 43.469521 42.542259                                                 
H 63.584170 41.151852 50.336972                                                 
C 61.623973 45.850169 42.533871                                                 
C 61.511941 45.831819 50.024328                                                 
C 62.924413 48.152221 42.511834                                                 
H 63.572063 45.840144 50.220247                                                 
H 64.973768 43.473837 42.513706                                                 
C 61.632298 55.370543 30.170617                                                 
C 61.600261 55.218308 36.797861                                                 
C 62.908265 57.745996 29.960489                                                 
H 63.667895 55.212941 36.775080                                                 
H 65.003117 53.086833 30.271781                                                 
C 61.617041 55.139082 42.800148                                                 
C 61.454842 55.169844 49.947701                                                 
C 62.898522 57.505617 42.992427                                                 
H 63.520161 55.179032 50.075716                                                 
H 64.989318 52.831673 42.583073                                                 
C 61.652052 50.745792 30.427658                                                 
C 61.573032 50.561144 36.587229                                                 
C 62.933303 53.078170 30.304608                                                 
H 65.015755 48.415666 30.403220                                                 
C 61.636783 50.477004 42.563962                                                 
C 61.479322 50.496281 50.053696                                                 
C 62.922014 52.824514 42.636037                                                 
H 64.992041 48.147332 42.437497                                                 
H 41.695754 71.092122 29.837846                                                 
H 44.523037 71.025253 36.718503                                                 
H 41.736365 70.888038 42.999305                                                 
H 44.246507 70.790318 50.412110                                                 
C 45.333448 69.308838 29.920035                                                 
C 45.566081 69.241707 36.794901                                                 
H 46.372616 71.096031 29.951327                                                 
C 48.155423 69.248697 36.843127                                                 
C 49.403530 66.986945 29.804001                                                 
C 49.565321 66.949471 36.998373                                                 
H 50.422141 68.785788 29.711145                                                 
C 52.229198 66.905026 37.109305                                                 
H 49.198585 71.033961 36.798919                                                 
C 45.360325 69.099731 42.760728                                                 
C 45.296738 69.017110 50.266075                                                 
H 46.406577 70.876676 42.608046                                                 
C 47.904865 69.036135 50.264251                                                 
C 49.430986 66.746948 42.870764                                                 
C 49.352433 66.748626 50.053460                                                 
H 50.461173 68.538333 42.778530                                                 
C 51.997764 66.751924 50.037781                                                 
H 48.936974 70.819214 50.423709                                                 
H 57.323176 66.322457 37.371647                                                 
H 57.114839 66.241567 50.098202                                                 
H 53.260687 68.696792 37.132007                                                 
H 52.997536 68.562443 50.112255                                                 
C 57.529098 62.325210 29.696800                                                 
C 57.611593 62.260901 37.246524                                                 
H 58.561766 64.106637 29.493259                                                 
C 60.325756 62.162817 37.264665                                                 
C 57.517114 62.054014 43.074253                                                 
C 57.463304 62.158171 49.833090                                                 
H 58.548635 63.850421 43.154351                                                 
C 60.158463 62.088969 49.677191                                                 
C 53.476902 64.663452 29.723638                                                 
C 53.613688 64.612050 37.191476                                                 
C 56.277218 64.541355 37.268669                                                 
C 53.469513 64.403888 42.928558                                                 
C 53.401630 64.485569 49.982819                                                 
C 56.088223 64.444367 50.074467                                                 
C 61.607453 59.977331 29.715191                                                 
C 61.616619 59.903291 37.140387                                                 
H 62.625034 61.769364 29.532562                                                 
H 63.682852 59.887931 37.131619                                                 
H 64.977231 57.748519 29.976448                                                 
H 61.362351 63.948586 37.365059                                                 
C 61.582231 59.727882 43.185276                                                 
C 61.450656 59.840011 49.653686                                                 
H 62.592017 61.526429 43.316996                                                 
H 63.518665 59.821296 49.611440                                                 
H 64.966780 57.505369 42.942279                                                 
H 61.187163 63.881400 49.585115                                                 
H 63.539959 50.506154 50.246727                                                 
H 36.354136 34.627170 50.227590                                                 
H 36.204456 66.123709 49.474217                                                 
H 27.247356 50.527979 42.380583                                                 
H 54.507526 66.198148 42.919678                                                 
H 63.640191 50.551724 36.538759                                                 
H 54.484967 34.711521 42.494614                                                 
H 36.312613 34.904866 37.110913                                                 
H 36.407379 66.385074 37.347100                                                 
H 54.500074 66.451759 29.537743                                                 
H 27.261074 50.593778 30.458546                                                 
H 54.656693 35.021961 30.028984                                                 
Li 58.952654 60.085016 33.633644                                                
Li 30.363333 43.466822 46.442534                                                
Li 43.950940 34.181339 33.220237                                                
Li 46.585194 67.037397 46.602172                                                
Li 60.365298 43.604754 46.126523                                                
Li 31.877410 60.180776 33.351309                                                
Li 51.118446 64.721699 33.589696                                                
Li 39.790020 64.938559 33.328380                                                
Li 60.534290 52.648501 46.202939                                                
Li 30.131948 52.609887 46.413205                                                
Li 35.631593 38.655883 46.181725                                                
Li 55.334394 38.480786 46.423512                                                
Li 35.954699 38.546491 33.190326                                                
Li 51.384600 35.194888 33.446339                                                
Li 39.289611 34.705082 46.417084                                                
Li 51.369016 34.829866 46.220823                                                
Li 55.521731 63.708358 46.339759                                                
Li 39.493680 66.239400 46.492560                                                
%ENDBLOCK POSITIONS_ABS                                                         

--------------------------------------------------------------------------------
-------------------------------- END INPUT FILE --------------------------------
--------------------------------------------------------------------------------


 
<<<<<<<<<<<<<<<<<<<<<<<<<<<<<<<<< Full system >>>>>>>>>>>>>>>>>>>>>>>>>>>>>>>>>>
<<<<<<<<<<<<<<<<<<<<<<<<<<< PAW Dataset information >>>>>>>>>>>>>>>>>>>>>>>>>>>
File: ~/pp/paw/c_pbe_abinit.paw; rc = 1.25 bohr; shape type =  3; rshape = 1.25 bohr;
  Atomic number:  6;  ionic charge:  4.000000
    Partial Wave 1: l = 0
    Partial Wave 2: l = 0
    Partial Wave 3: l = 1
    Partial Wave 4: l = 1
  Core charge supplied for Nonlinear Core Corrections
File: ~/pp/paw/h_pbe_abinit.paw; rc = 0.90 bohr; shape type =  3; rshape = 0.90 bohr;
  Atomic number:  1;  ionic charge:  1.000000
    Partial Wave 1: l = 0
    Partial Wave 2: l = 0
File: ~/pp/paw/li_pbe_abinit.paw; rc = 1.42 bohr; shape type =  3; rshape = 1.42 bohr;
  Atomic number:  3;  ionic charge:  3.000000
    Partial Wave 1: l = 0
    Partial Wave 2: l = 0
    Partial Wave 3: l = 0
    Partial Wave 4: l = 1
    Partial Wave 5: l = 1
<<<<<<<<<<<<<<<<<<<<<<<<<<<<<<<<<<<<<<< >>>>>>>>>>>>>>>>>>>>>>>>>>>>>>>>>>>>>>>

-------------------------- Atom counting information ---------------------------
Symbol    Natoms    Nngwfs    Nprojs
  C        484      1936      3872
  H        108       108       216
  Li        18        90       162
.......   ......    ......    ......
Totals:    610      2134      4250
--------------------------------------------------------------------------------

=============================== PSINC grid sizes ===============================
                      Simulation cell:  189 x 189 x 189
                              FFT-box:  117 x 117 x 117
                                  PPD:    7 x   7 x   1
Grid space d1=  0.499927596032a0 (KE cutoff=  30.39413Eh = 827.06648eV)
Grid space d2=  0.499927596032a0 (KE cutoff=  30.39413Eh = 827.06648eV)
Grid space d3=  0.499927596032a0 (KE cutoff=  30.39413Eh = 827.06648eV)
================================================================================
  
WARNING in cell_grid_distribute:
Average of less than one 23-slab per node, so workload cannot be
equally balanced between nodes.

********************* Fourier parallelisation information **********************
       Coarse grid (whole simulation cell) dimensions:    189   189   189
          Real-space ('12') slabs/node (min max mean):      1     2     1
         Recip-space ('23') slabs/node (min max mean):      0     1     0
********************************************************************************

********************* Fourier parallelisation information **********************
       Double grid (whole simulation cell) dimensions:    378   378   378
          Real-space ('12') slabs/node (min max mean):      2     3     2
         Recip-space ('23') slabs/node (min max mean):      1     2     1
********************************************************************************

Atom SCF Calculation for C  : Z (AE atom) =   6 : Z (PS atom) =   4
Config String: 2s2 2p2
Orbitals (num,occ):  2     2.00 2.00
Orbitals   (num,l):  2        0    1
Real-space Grid (nr,dr,rmax): 1377    0.0065406977    9.0000000000
Spherical Bessel Basis (nsws,lmax,cutoff):   37    2  183.0099912382
Confining potential (l,width,scale):  0    3.0000000000  100.0000000000
Confining potential (l,width,scale):  1    3.0000000000  100.0000000000
  1         -5.4350126632   -1.2715272878    4.5135247139   -1.5681949477
  2         -5.3876836850   -1.3562195125    4.4235426751   -1.5380057521
  3         -5.3928844498   -1.3758175853    4.4021699684   -1.5318377811
  4         -5.3988962903   -1.3800385428    4.3975423583   -1.5307324410
  5         -5.4018428823   -1.3823489590    4.3950111904   -1.5301555648
  6         -5.4033571720   -1.3835805046    4.3936635548   -1.5298576834
  7         -5.4041480647   -1.3842324820    4.3929512000   -1.5297032953
  8         -5.4045641108   -1.3845769138    4.3925755232   -1.5296229456
  9         -5.4047838258   -1.3847587737    4.3923775340   -1.5295810042
 10         -5.4049001347   -1.3848548089    4.3922731819   -1.5295590658
 11         -5.4049618018   -1.3849055476    4.3922181562   -1.5295475724
 12         -5.4049945351   -1.3849323732    4.3921891206   -1.5295415432
 13         -5.4050119258   -1.3849465673    4.3921737867   -1.5295383767
 14         -5.4050211723   -1.3849540841    4.3921656816   -1.5295367119
 15         -5.4050260920   -1.3849580684    4.3921613935   -1.5295358358
 16         -5.4050287113   -1.3849601822    4.3921591228   -1.5295353742
 17         -5.4050301068   -1.3849613045    4.3921579192   -1.5295351307
 18         -5.4050308507   -1.3849619010    4.3921572806   -1.5295350022
 19         -5.4050312476   -1.3849622183    4.3921569415   -1.5295349343
 20         -5.4050314594   -1.3849623873    4.3921567612   -1.5295348984
 21         -5.4050315725   -1.3849624773    4.3921566653   -1.5295348794
 22         -5.4050316330   -1.3849625253    4.3921566143   -1.5295348693
Atom SCF converged after  22 iterations to a total energy of     -5.40503163

Atom SCF Calculation for H  : Z (AE atom) =   1 : Z (PS atom) =   1
Config String: 1s1
Orbitals (num,occ):  1     1.00
Orbitals   (num,l):  1        0
Real-space Grid (nr,dr,rmax): 1377    0.0065406977    9.0000000000
Spherical Bessel Basis (nsws,lmax,cutoff):   37    1  183.0099912382
Confining potential (l,width,scale):  0    3.0000000000  100.0000000000
  1         -0.3605254152   -0.2399954029    0.2820952946   -0.2424203210
  2         -0.4156854077   -0.2398249290    0.2871789324   -0.2464796203
  3         -0.4412552402   -0.2379720642    0.2899127187   -0.2499011370
  4         -0.4517265951   -0.2371980236    0.2908966173   -0.2514141636
  5         -0.4557775773   -0.2369735141    0.2911607883   -0.2519713623
  6         -0.4573363459   -0.2369240355    0.2912108681   -0.2521663171
  7         -0.4579443228   -0.2369187864    0.2912112833   -0.2522344454
  8         -0.4581858602   -0.2369215483    0.2912049187   -0.2522587615
  9         -0.4582834939   -0.2369242589    0.2912002081   -0.2522677042
 10         -0.4583235236   -0.2369258837    0.2911975892   -0.2522710965
 11         -0.4583401154   -0.2369267223    0.2911962825   -0.2522724192
 12         -0.4583470483   -0.2369271266    0.2911956643   -0.2522729467
 13         -0.4583499624   -0.2369273145    0.2911953803   -0.2522731607
 14         -0.4583511926   -0.2369274000    0.2911952521   -0.2522732486
 15         -0.4583517136   -0.2369274385    0.2911951948   -0.2522732850
 16         -0.4583519349   -0.2369274556    0.2911951693   -0.2522733002
 17         -0.4583520290   -0.2369274632    0.2911951581   -0.2522733066
Atom SCF converged after  17 iterations to a total energy of     -0.45835203

Atom SCF Calculation for Li : Z (AE atom) =   3 : Z (PS atom) =   3
Config String: 1s2 2s1 2p0
Orbitals (num,occ):  3     2.00 1.00 0.00
Orbitals   (num,l):  3        0    0    1
Real-space Grid (nr,dr,rmax): 1377    0.0065406977    9.0000000000
Spherical Bessel Basis (nsws,lmax,cutoff):   37    2  183.0099912382
Confining potential (l,width,scale):  0    3.0000000000  100.0000000000
Confining potential (l,width,scale):  1    3.0000000000  100.0000000000
  1         -6.0640888065   -4.6655401716    2.5388576516   -0.9989538799
  2         -6.9627542978   -4.0954079129    2.9808988108   -1.1965571426
  3         -7.2692687601   -3.8889996707    3.2029735703   -1.3193883705
  4         -7.3784440298   -3.8322099748    3.2868571989   -1.3711018151
  5         -7.4170278248   -3.8191968371    3.3144974220   -1.3911175539
  6         -7.4303549880   -3.8172386945    3.3228486489   -1.3986896266
  7         -7.4348052089   -3.8175483495    3.3251259310   -1.4015352495
  8         -7.4362242328   -3.8180607346    3.3256233205   -1.4026016384
  9         -7.4366459715   -3.8184145665    3.3256561549   -1.4029998726
 10         -7.4367560626   -3.8186169740    3.3256001574   -1.4031477379
 11         -7.4367765260   -3.8187239825    3.3255481763   -1.4032021548
 12         -7.4367751741   -3.8187782620    3.3255144587   -1.4032219192
 13         -7.4367707398   -3.8188051288    3.3254952336   -1.4032289600
 14         -7.4367680349   -3.8188156035    3.3254870176   -1.4032309087
 15         -7.4367661982   -3.8188217406    3.3254819951   -1.4032318132
 16         -7.4367650112   -3.8188253257    3.3254789583   -1.4032322224
 17         -7.4367642682   -3.8188274151    3.3254771375   -1.4032324006
 18         -7.4367638134   -3.8188286307    3.3254760529   -1.4032324736
 19         -7.4367635392   -3.8188293370    3.3254754103   -1.4032325004
 20         -7.4367633760   -3.8188297469    3.3254750310   -1.4032325080
 21         -7.4367632796   -3.8188299846    3.3254748079   -1.4032325082
Atom SCF converged after  21 iterations to a total energy of     -7.43676328

Determining parallel strategy ...
... using space-filling curve
... NGWF load balancing: max     16;  min     12;  average     13
... Projector load balancing: max     32;  min     24;  average     27
... done
Calculating Ewald energy ...
              Ewald: real-space energy =   35957.471520
        Ewald: reciprocal-space energy =   34766.885741
         Ewald: (sum_charge)**2 Energy =    2746.431547
         Ewald: (sum_charge**2) Energy =     247.002906
                          Ewald Energy =   67730.922808
======================= Empirical dispersion information =======================
Model : Grimme D2
Dispersion Correction Energy: -0.20243797E+01 Hartree
================================================================================
Basis initialisation ...... NGWF spheres initialised
... Projector spheres initialised
... NGWF tight boxes initialised
... Projector tight boxes initialised
... Tight-boxes gathered
... NGWF basis size (local,global):     265603  43059898
... PAW projector initialisation
... done

============================= Charge Augmentation ==============================
                           Aug box size:   13 x  13 x  13
================================================================================

========================== Sparse matrix information ===========================
                        Overlap matrix filling:  38.44%
                        Density kernel filling: 100.00%
              NGWF-Proj overlap matrix filling:  10.85%
                    Aug Overlap matrix filling:  42.59%
                    Hamiltonian matrix filling:  42.59%
                  NGWF diagonal matrix filling:   0.18%
                             KS matrix filling: 100.00% 
                           KSKS matrix filling: 100.00% 
================================================================================

Sparse matrix initialisation ... done
NGWF initialisation ...... done
============ Calculation of NGWF S^-1 using Hotelling algorithm ================ 
         Iteration  |  Frobenius norm and Maximum abs value    (of I-S*S_n^-1)   
               1       0.45858375E+02     0.99612687E+00
               2       0.45539414E+02     0.99228144E+00
               3       0.44949889E+02     0.98467063E+00
               4       0.43933086E+02     0.96975024E+00
               5       0.42364413E+02     0.94098832E+00
               6       0.40258679E+02     0.88707018E+00
               7       0.37707728E+02     0.79219750E+00
               8       0.34771058E+02     0.77184053E+00
               9       0.31688174E+02     0.74695225E+00
              10       0.28729090E+02     0.73224267E+00
              11       0.25591037E+02     0.71082371E+00
              12       0.21600651E+02     0.67948740E+00
              13       0.16342122E+02     0.63603124E+00
              14       0.10166660E+02     0.56378464E+00
              15       0.46600443E+01     0.44817287E+00
              16       0.15781337E+01     0.28635775E+00
              17       0.65881436E+00     0.12131542E+00
              18       0.26701692E+00     0.52423229E-01
              19       0.49757550E-01     0.98678730E-02
              20       0.17504101E-02     0.35006118E-03
              21       0.21680550E-05     0.44056977E-06
              22       0.33342010E-11     0.69699801E-12
================================================================================
Calculating core density ...
================================= Core Density =================================
               Core den box size:   21 x  21 x  21
================================================================================
 ... done
Up spin density kernel initialisation ...... done
Down spin density kernel initialisation ...... done

Writing density kernel to file "18/592nano.dkn" ... done

>>> Optimising kernel for current NGWFs:

--------------------------- Ensemble-DFT optimisation --------------------------
Running ScaLAPACK on  160 processor(s).

--------------------------------------------------------------------------------
  Iter                              Commutator    Free_energy(A=E-TS)     DeltaA
#    0                          0.001028125368   -2951.29829201509483  -2.95E+03

Step                       =       0.381966011250
Energy                     =   -2951.264819298826
Entropy (-TS)              =      -0.033472716027
Free energy (A=E-TS)       =   -2951.298292015095
Est. 0K Energy 0.5*(E+A)   =   -2951.281555656960
Residual Non-orthogonality =       0.000000000000
Residual N_electrons       =      -0.000000000242

Spin          Integrated_Ne            Fermi_level     Delta_Fermi_level
   1      1048.999999999514        -0.249152749200             -2.49E-01
   2      1048.999999999514        -0.249152749200             -2.49E-01

                           Spin 1           |                 Spin 2           |
     Orb |    H-eigenvalues     Occupancies |    H-eigenvalues     Occupancies |
       1 |    -1.8940672769    1.0000000000 |    -1.8940672769    1.0000000000 | 
                          ------                             ------
    1045 |    -0.2573590357    0.9303021801 |    -0.2573590357    0.9303021801 | 
    1046 |    -0.2542157988    0.8318484583 |    -0.2542157988    0.8318484583 | 
    1047 |    -0.2525336445    0.7441406779 |    -0.2525336445    0.7441406779 | 
    1048 |    -0.2524423227    0.7386116814 |    -0.2524423227    0.7386116814 | 
    1049 |    -0.2505319526    0.6071905464 |    -0.2505319526    0.6071905464 | 
                 - Gap at zero temperature - |     - Gap at zero temperature -
    1050 |    -0.2482314556    0.4277782756 |    -0.2482314556    0.4277782756 | 
    1051 |    -0.2472198114    0.3519740016 |    -0.2472198114    0.3519740016 | 
    1052 |    -0.2455139245    0.2406626476 |    -0.2455139245    0.2406626476 | 
    1053 |    -0.2435406549    0.1452740066 |    -0.2435406549    0.1452740066 | 
    1054 |    -0.2379509804    0.0282710399 |    -0.2379509804    0.0282710399 | 
                          ------                             ------
    2134 |     0.5629809525    0.0000000000 |     0.5629809525    0.0000000000 | 

                       |  Abs_value |  Threshold | Converged
     Delta_Free_energy |   2.95E+03 |   1.00E-06 |        No
     Delta_Energy      |   2.95E+03 |   1.00E-04 |        No
     Delta_Entropy     |   3.35E-02 |   1.00E-04 |        No
     Commutator        |   1.03E-03 |   1.00E-05 |        No
     Delta_Fermi_level |   2.49E-01 |   1.00E-03 |        No

  Line search of the free energy minimum:
  Step_type        Step             Free_energy   Predicted_free_energy
.   Initial    0.000000    -2951.29829201509483
.    Trial1    0.381966    -2951.50242666322674
.    Trial2    0.618034    -2949.42036188298425
. Quadratic    0.208638    -2951.91317747342009    -2951.95713376579170

--------------------------------------------------------------------------------
  Iter                              Commutator    Free_energy(A=E-TS)     DeltaA
#    1                          0.000612579340   -2951.91317747342009  -6.15E-01

Step                       =       0.208638006614
Energy                     =   -2951.880296922876
Entropy (-TS)              =      -0.032880550583
Free energy (A=E-TS)       =   -2951.913177473420
Est. 0K Energy 0.5*(E+A)   =   -2951.896737198148
Residual Non-orthogonality =       0.000000000000
Residual N_electrons       =       0.000000000040

Spin          Integrated_Ne            Fermi_level     Delta_Fermi_level
   1      1049.000000000361        -0.231430108837              1.77E-02
   2      1048.999999999811        -0.231430108856              1.77E-02

                           Spin 1           |                 Spin 2           |
     Orb |    H-eigenvalues     Occupancies |    H-eigenvalues     Occupancies |
       1 |    -1.9162460944    1.0000000000 |    -1.9162460944    1.0000000000 | 
                          ------                             ------
    1045 |    -0.2398624237    0.9347903331 |    -0.2398624237    0.9347903331 | 
    1046 |    -0.2384069109    0.9005275403 |    -0.2384069109    0.9005275403 | 
    1047 |    -0.2368818158    0.8483236153 |    -0.2368818158    0.8483236153 | 
    1048 |    -0.2339427871    0.6885697167 |    -0.2339427871    0.6885697167 | 
    1049 |    -0.2314055072    0.4980578665 |    -0.2314055073    0.4980578665 | 
                 - Gap at zero temperature - |     - Gap at zero temperature -
    1050 |    -0.2305487565    0.4308683791 |    -0.2305487565    0.4308683791 | 
    1051 |    -0.2287006720    0.2969450358 |    -0.2287006720    0.2969450358 | 
    1052 |    -0.2284096468    0.2781239626 |    -0.2284096468    0.2781239626 | 
    1053 |    -0.2238192339    0.0829195514 |    -0.2238192339    0.0829195514 | 
    1054 |    -0.2215747111    0.0426113574 |    -0.2215747111    0.0426113574 | 
                          ------                             ------
    2134 |     0.5788722630    0.0000000000 |     0.5788722635    0.0000000000 | 

                       |  Abs_value |  Threshold | Converged
     Delta_Free_energy |   6.15E-01 |   1.00E-06 |        No
     Delta_Energy      |   6.15E-01 |   1.00E-04 |        No
     Delta_Entropy     |   5.92E-04 |   1.00E-04 |        No
     Commutator        |   6.13E-04 |   1.00E-05 |        No
     Delta_Fermi_level |   1.77E-02 |   1.00E-03 |        No

  Line search of the free energy minimum:
  Step_type        Step             Free_energy   Predicted_free_energy
.   Initial    0.000000    -2951.91317747342009
.    Trial1    0.208638    -2951.79421152820714
.    Trial2    0.079693    -2952.06986021661260
. Quadratic    0.089824    -2952.07134416763938    -2952.07187935126331

--------------------------------------------------------------------------------
[...]
 C    72 -- C   560       -0.10      0.00      5.40606
 C   354 -- C   384       -0.09      0.00      5.40687
 C   198 -- C   224       -0.09     -0.00      5.40689
 C   285 -- C   407       -0.09      0.00      5.40700
 C   206 -- C   304       -0.09     -0.00      5.40748
 C    82 -- C   492       -0.09     -0.00      5.40763
 C    88 -- C   118       -0.10     -0.00      5.40782
 C    62 -- C   368       -0.09     -0.00      5.40844
 C   199 -- C   241       -0.08     -0.00      5.40846
 C   358 -- C   388       -0.09      0.00      5.40855
 C   233 -- C   381       -0.09      0.00      5.40856
 C    74 -- C   488       -0.09      0.00      5.40872
 C    66 -- C   100       -0.09     -0.00      5.40903
 C   231 -- C   241       -0.08     -0.00      5.40915
 C    22 -- C    32       -0.09      0.00      5.40934
 C   339 -- C   497       -0.09     -0.00      5.40954
 C    30 -- C   120       -0.09     -0.00      5.40963
 C    73 -- C    79       -0.09      0.00      5.40997
 C   261 -- C   427       -0.10      0.00      5.41003
 C    96 -- C   126       -0.09     -0.00      5.41004
 C   342 -- C   388       -0.08      0.00      5.41035
 C   416 -- C   476       -0.09     -0.00      5.41058
 C    80 -- C   538       -0.08      0.00      5.41060
 C   378 -- Li  606       -0.06      0.00      5.41078
 C   229 -- C   235       -0.09      0.00      5.41102
 C   293 -- C   421       -0.09      0.00      5.41201
 C    70 -- C   104       -0.09      0.00      5.41215
 C   182 -- C   188       -0.09      0.00      5.41259
 C    88 -- C   560       -0.08     -0.00      5.41262
 C   309 -- C   377       -0.09      0.00      5.41276
 C   260 -- C   420       -0.10      0.00      5.41281
 C    40 -- C    54       -0.09      0.00      5.41283
 C    52 -- C   338       -0.09      0.00      5.41339
 C   293 -- C   295       -0.09     -0.00      5.41367
 C   330 -- C   382       -0.09     -0.00      5.41425
 C   205 -- C   207       -0.09     -0.00      5.41428
 C    92 -- C   564       -0.09     -0.00      5.41428
 C   205 -- C   263       -0.09     -0.00      5.41431
 C   440 -- C   488       -0.09     -0.00      5.41463
 C   377 -- C   391       -0.09      0.00      5.41466
 C   441 -- C   463       -0.08     -0.00      5.41567
 C    53 -- C   395       -0.09      0.00      5.41642
 C   260 -- C   294       -0.08      0.00      5.41673
 C   466 -- C   538       -0.09      0.00      5.41682
 C    75 -- C   463       -0.10      0.00      5.41700
 C   186 -- C   212       -0.09     -0.00      5.41713
 C    77 -- C    91       -0.08      0.00      5.41717
 C   186 -- C   192       -0.09     -0.00      5.41755
 C   409 -- C   485       -0.09     -0.00      5.41767
 C    87 -- C    93       -0.09      0.00      5.41809
 C   408 -- C   416       -0.09     -0.00      5.41818
 C   181 -- C   183       -0.09     -0.00      5.41819
 C   183 -- C   237       -0.08      0.00      5.41867
 C   233 -- C   239       -0.08     -0.00      5.41902
 C    84 -- C   567       -0.09     -0.00      5.41944
 C    64 -- C   366       -0.09      0.00      5.41955
 C    40 -- C   102       -0.08     -0.00      5.41973
 C    38 -- C   104       -0.08     -0.00      5.42017
 C   103 -- C   525       -0.08     -0.00      5.42058
 C   202 -- C   208       -0.09     -0.00      5.42069
 C   220 -- C   238       -0.09     -0.00      5.42128
 C   330 -- C   394       -0.08     -0.00      5.42175
 C   333 -- C   365       -0.08      0.00      5.42186
 C    96 -- C   567       -0.08     -0.00      5.42302
 C    65 -- C    91       -0.09      0.00      5.42305
 C   332 -- C   388       -0.08     -0.00      5.42330
 C    79 -- C    89       -0.08      0.00      5.42493
 C   313 -- C   319       -0.09      0.00      5.42703
 C   238 -- C   314       -0.09     -0.00      5.42837
 C   316 -- C   390       -0.08     -0.00      5.42887
 C    56 -- C   342       -0.09      0.00      5.42914
 C   224 -- C   242       -0.08     -0.00      5.43011
 C    83 -- C   467       -0.09     -0.00      5.43203
 C    76 -- C   564       -0.08      0.00      5.43248
 C   477 -- C   485       -0.08      0.00      5.43378
 C   262 -- C   292       -0.08      0.00      5.43414
 C   480 -- Li  610       -0.07     -0.00      5.43444
 C   197 -- C   199       -0.09      0.00      5.43553
 C   252 -- C   406       -0.09      0.00      5.43759
 C    67 -- C   511       -0.09      0.00      5.43885
 C   185 -- C   235       -0.08     -0.00      5.43885
 C   343 -- C   506       -0.08      0.00      5.44287
 C   230 -- C   318       -0.09      0.00      5.44347
 C   201 -- C   239       -0.08      0.00      5.44502
 C   385 -- C   395       -0.08     -0.00      5.44746
 H   589 -- Li  600       -0.03     -0.00      5.44837
 C   202 -- C   216       -0.08     -0.00      5.45065
 C   198 -- C   204       -0.08      0.00      5.45089
 C   368 -- C   394       -0.08      0.00      5.45474
 C   241 -- Li  607       -0.05      0.00      5.45627
 C   227 -- C   309       -0.08     -0.00      5.45650
 C   470 -- C   547       -0.08      0.00      5.46652
 C    94 -- Li  609       -0.06      0.00      5.46688
 C    68 -- C   556       -0.08     -0.00      5.46858
 C   253 -- C   413       -0.08     -0.00      5.46902
 H   581 -- Li  601       -0.02     -0.00      5.47503
 H   146 -- Li  603       -0.03      0.00      5.48764
 H   519 -- Li  601       -0.02     -0.00      5.50613
 H   587 -- Li  604       -0.01     -0.00      5.51046
 H   544 -- Li  596       -0.02     -0.00      5.54301
 H   590 -- Li  599       -0.02     -0.00      5.55399
 C   216 -- Li  607       -0.05     -0.00      5.55737
 C    93 -- Li  609       -0.07      0.00      5.57792
 C   385 -- Li  608       -0.05     -0.00      5.58280
 H   151 -- Li  595       -0.02     -0.00      5.58777
 H   401 -- Li  598       -0.02     -0.00      5.59944
 C   469 -- Li  610       -0.06      0.00      5.59983
 C   324 -- Li  608       -0.07     -0.00      5.62538
 H   412 -- Li  598       -0.02     -0.00      5.63580
 C   318 -- C   331       -0.04     -0.00      5.64067
 C   479 -- Li  610       -0.06      0.00      5.64438
 C   470 -- Li  610       -0.04      0.00      5.64576
 H   548 -- Li  596       -0.02      0.00      5.64768
 C   469 -- Li  596       -0.04      0.00      5.65382
 H   509 -- Li  597       -0.02      0.00      5.66029
 H   539 -- Li  599       -0.02     -0.00      5.66081
 H   165 -- Li  594       -0.02      0.00      5.66415
 C   137 -- Li  607       -0.07     -0.00      5.66764
=============================================================


============== Orbital energy and occupancy information for spin 1 =============

      Total number of orbitals:    2134
        Occupancy sum (kernel):    1048.999999996
   Occupancy sum (eigenvalues):    1048.999999996
                 HOMO-LUMO gap:       0.001189532 Eh
                 Mid-gap level:      -0.094162404 Eh

                        Orbital | Energy (Eh) | Occupancy
                            1    -1.845431009   1.0000000
                        .......   ...........   .........
                         1040    -0.131460424   0.9999900
                         1041    -0.121596263   0.9997987
                         1042    -0.110046026   0.9924471
                         1043    -0.107295817   0.9821641
                         1044    -0.103730588   0.9469255
                         1045    -0.103286694   0.9394132
                         1046    -0.100233442   0.8552371
                         1047    -0.099881859   0.8402415
                         1048    -0.097689525   0.7229188
                         1049    -0.094757170   0.5134398
                        ....... -- gap at 0K -- .........
                         1050    -0.093567638   0.4165966
                         1051    -0.092472262   0.3390136
                         1052    -0.090691658   0.2240218
                         1053    -0.088399258   0.1227964
                         1054    -0.084566942   0.0399785
                         1055    -0.084116897   0.0346395
                         1056    -0.080948749   0.0130611
                         1057    -0.078849273   0.0067654
                         1058    -0.076072268   0.0028241
                         1059    -0.075831115   0.0026264
                        .......   ...........   .........
                         2134     0.774031845   0.0000000

================================================================================

============== Orbital energy and occupancy information for spin 2 =============

      Total number of orbitals:    2134
        Occupancy sum (kernel):    1049.000000004
   Occupancy sum (eigenvalues):    1049.000000004
                 HOMO-LUMO gap:       0.001189532 Eh
                 Mid-gap level:      -0.094162404 Eh

                        Orbital | Energy (Eh) | Occupancy
                            1    -1.845431009   1.0000000
                        .......   ...........   .........
                         1040    -0.131460424   0.9999900
                         1041    -0.121596263   0.9997987
                         1042    -0.110046026   0.9924471
                         1043    -0.107295817   0.9821641
                         1044    -0.103730588   0.9469255
                         1045    -0.103286693   0.9394132
                         1046    -0.100233442   0.8552371
                         1047    -0.099881859   0.8402415
                         1048    -0.097689525   0.7229188
                         1049    -0.094757170   0.5134398
                        ....... -- gap at 0K -- .........
                         1050    -0.093567637   0.4165966
                         1051    -0.092472262   0.3390136
                         1052    -0.090691658   0.2240218
                         1053    -0.088399258   0.1227964
                         1054    -0.084566942   0.0399785
                         1055    -0.084116897   0.0346395
                         1056    -0.080948749   0.0130611
                         1057    -0.078849273   0.0067654
                         1058    -0.076072268   0.0028241
                         1059    -0.075831115   0.0026264
                        .......   ...........   .........
                         2134     0.774031845   0.0000000

================================================================================

===================== Writing canonical molecular orbitals =====================
    Spin 1
| Orbital  Energy (eV)  Norm     |
| HOMO     -2.57847379  1.000000 | Writing "18/592nano_HOMO_UP.cube" ... done
Writing "18/592nano_HOMO_UP.dx" ... done
| LUMO     -2.54610497  1.000000 | Writing "18/592nano_LUMO_UP.cube" ... done
Writing "18/592nano_LUMO_UP.dx" ... done
================================================================================

===================== Writing canonical molecular orbitals =====================
    Spin 2
| Orbital  Energy (eV)  Norm     |
| HOMO     -2.57847379  1.000000 | Writing "18/592nano_HOMO_DN.cube" ... done
Writing "18/592nano_HOMO_DN.dx" ... done
| LUMO     -2.54610497  1.000000 | Writing "18/592nano_LUMO_DN.cube" ... done
Writing "18/592nano_LUMO_DN.dx" ... done
================================================================================

================== Local Density of States (LDOS) calculation ==================
Writing "18/592nano_UP_LDOS.txt" ...  done
================================================================================

================== Local Density of States (LDOS) calculation ==================
Writing "18/592nano_DN_LDOS.txt" ...  done
================================================================================
 
=============== Density of States (DOS) calculation for UP spin ================
Writing "18/592nano_UP_DOS.txt" ...  done
================================================================================
 
============== Density of States (DOS) calculation for DOWN spin ===============
Writing "18/592nano_DN_DOS.txt" ...  done
================================================================================
 
Writing bands to file "18/592nano.val_bands" ... done
 
================ Projected Density of States (pDOS) calculation ================
 
Constructing AM resolved functions  ...... done
Writing NGWF plot files in formats: CUBE DX ...  done
 
Performing overlap integrals ...  done
 
Computing pDOS weights ...  done
 
All bands spilling parameter =   3.37 %
Occupancy-weighted spilling parameter =   0.93 %
 
 => Outputting data for OptaDOS <=
 
Writing pDOS weights to file "18/592nano.val_pdos_bin" ... done
 
Writing band gradients to file "18/592nano.val_dome_bin" ... done
 
Writing Castep output cell file to "18/592nano-out.cell" ... done
 
 => Computing Gaussian smeared pDOS for UP spin<= 
Writing "18/592nano_UP_PDOS.txt" ...  done
 
 => Computing Gaussian smeared pDOS for DOWN spin<= 
Writing "18/592nano_DN_PDOS.txt" ...  done
 
 => Computing Occupancy-weighted Gaussian smeared pDOS for UP spin<= 
Writing "18/592nano_occ_UP_PDOS.txt" ...  done
  => Band centres for UP spin channel: 
 S band centre of group 1:  -16.081602 eV
 P band centre of group 1:   -7.891041 eV
  Band centres for UP spin channel done. <= 
  => Integrated number of electrons in each AM band for UP spin channel: 
 S num electrons of group 1:  283.030799
 P num electrons of group 1:  756.241163
  Integrated number of electrons for UP spin channel done. <= 
 
 => Computing Occupancy-weighted Gaussian smeared pDOS for DOWN spin<= 
Writing "18/592nano_occ_DN_PDOS.txt" ...  done
  => Band centres for DOWN spin channel: 
 S band centre of group 1:  -16.081602 eV
 P band centre of group 1:   -7.891041 eV
  Band centres for DOWN spin channel done. <=
  => Integrated number of electrons in each AM band for DOWN spin channel: 
 S num electrons of group 1:  283.030799
 P num electrons of group 1:  756.241163
  Integrated number of electrons for DOWN spin channel done. <=
================================================================================

------------------------------ TIMING INFORMATION ------------------------------
AVERAGE TIME:   15439.835s on    160 node(s)                                    
TOTAL TIME:     15439.838s on    160 node(s)                                    
================= AVERAGE TIMINGS FROM ALL NODES (CUMULATIVE) ==================
|| TAG                                    #calls    cpu time   %total  Gflops ||
|| work_imbalance                       :     1        0.00s   0.000%  ------ ||
|| sparse_set_to_garbage                :   219        0.01s   0.000%  ------ ||
|| paw_sphere_density_on_grid           :     1        0.01s   0.000%  ------ ||
|| paw_tcore_density                    :     1        0.01s   0.000%  ------ ||
|| basis_extract_function_from_box      :   346        0.02s   0.000%  ------ ||
|| paw_dij_hartree                      :   941        0.03s   0.000%  ------ ||
|| ngwfs_initialise_from_radial         :     2        0.04s   0.000%  ------ ||
|| ewald_calculate_energy               :     1        0.12s   0.001%  ------ ||
|| density_init_guess_real              :     1        0.20s   0.001%  ------ ||
|| paw_tcore_hartree_on_grid            :     1        0.39s   0.003%  ------ ||
|| paw_dataset_init                     :     3        0.40s   0.003%  ------ ||
|| pseudo_make_structure_factor         :     1        0.49s   0.003%  ------ ||
|| sparse_init                          :     1        0.99s   0.006%  ------ ||
|| dense_normal_eigensolve              :     1        1.04s   0.007%  ------ ||
|| restart_kernel_write                 :    14        1.29s   0.008%  ------ ||
|| paw_species_calc_proj_prec_mat       :     1        2.18s   0.014%  ------ ||
|| sparse_embed_hotelling_invert_embed  :    25        4.62s   0.030%  ------ ||
|| sw_init                              :     1        7.53s   0.049%  ------ ||
|| augmentation_screen_dij              :   704        8.37s   0.054%  ------ ||
|| fourier_apply_box_pair               :   868        9.72s   0.063%  2.360k ||
|| ngwf_gradient_coeffs                 :    13       10.82s   0.070%  ------ ||
|| projectors_init_fftbox_recip         :    53       19.99s   0.129%  ------ ||
|| integrals_kinetic                    :    25       32.05s   0.208%  ------ ||
|| basis_copy_function_to_box           : 25501       32.63s   0.211%  ------ ||
|| projectors_func_ovlp_box             :    26       37.33s   0.242%  ------ ||
|| hartree_on_grid                      :   699       39.14s   0.254%  ------ ||
|| paw_dij_xc                           :   941       40.66s   0.263%  ------ ||
|| function_ops_brappd_ketppd           :    52       41.68s   0.270%  ------ ||
|| hamiltonian_energy_components        :     3       73.07s   0.473%  ------ ||
|| augmentation_density_on_grid         :   699       89.18s   0.578%  ------ ||
|| eigenstates_pdos                     :     1       91.09s   0.590%  ------ ||
|| sparse_trace                         : 17580       91.91s   0.595%  ------ ||
|| restart_ngwfs_tightbox_output        :    12      112.62s   0.729%  ------ ||
|| aug_nonlocal_mat                     :   928      115.09s   0.745%  ------ ||
|| fourier_apply_cell_forward           :  6283      136.67s   0.885% 160.009 ||
|| basis_dot_function_with_box          : 5.472M     148.34s   0.961%  ------ ||
|| fourier_apply_cell_backward          :  6284      148.74s   0.963% 147.044 ||
|| eigenstates_calculate                :     1      193.13s   1.251%  ------ ||
|| xc_energy_potential                  :   698      286.75s   1.857%  ------ ||
|| sparse_product                       : 15116      356.56s   2.309%  ------ ||
|| dense_eigensolve                     :  1340      461.07s   2.986%  ------ ||
|| basis_add_function_to_box            : 16.43M     530.41s   3.435%  ------ ||
|| projectors_gradient_batch            :    13      547.30s   3.545%  ------ ||
|| integrals_locpot_mat_els_batch       :   473      556.76s   3.606%  ------ ||
|| cell_grid_extract_box_real           : 13636      678.80s   4.396%  ------ ||
|| cell_grid_deposit_box_real           : 44820      725.93s   4.702%  ------ ||
|| projectors_grad_precond_batch        :    13      753.77s   4.882%  ------ ||
|| density_batch_row_sums               :   699     1350.71s   8.748%  ------ ||
|| density_fftbox_deposit_to_cell       : 22368     1356.89s   8.788%  ------ ||
|| properties_calculate                 :     1     1405.62s   9.104%  ------ ||
|| ngwf_gradient_build_batch            :    13     1453.12s   9.412%  ------ ||
|| ngwf_gradient_batch                  :    13     1578.14s  10.221%  ------ ||
|| ngwf_gradient_lnv                    :    13     1597.44s  10.346%  ------ ||
|| edft_diag_ngwf_ham                   :  1338     1615.61s  10.464%  ------ ||
|| fourier_apply_box                    : 81242     1698.85s  11.003%  4.144k ||
|| potential_apply_to_ngwf_batch        :   473     1866.08s  12.086%  ------ ||
|| density_fftbox_interpolate_multiply  : 22368     1933.97s  12.526%  ------ ||
|| integrals_locpot_dbl_grid            :   473     2439.07s  15.797%  ------ ||
|| edft_apply_smearing_operator         :   669     2639.93s  17.098%  ------ ||
|| density_batch_interp_deposit         :   699     3988.86s  25.835%  ------ ||
|| density_on_dbl_grid                  :   699     5453.98s  35.324%  ------ ||
|| hamiltonian_lhxc_calculate           :   694     6031.43s  39.064%  ------ ||
|| edft_calculate                       :    13    11331.58s  73.392%  ------ ||
|| ngwf_cg_optimise                     :     1    14013.00s  90.759%  ------ ||
|| total_time                           :     1    15439.84s 100.000%  ------ ||
================================================================================
Overhead of generating timer report: 
- 0 ms averaging over threads,
- 25 ms ensuring consistency across MPI ranks,
- 0 ms printing in order.

Job completed: 07-09-2020 03:54 (+0100)

