 +---------------------------------------------------------------+
 |                                                               |
 |        ####### #     # ####### ####### ####### ######         |
 |        #     # ##    # #          #    #       #     #        |
 |        #     # # #   # #          #    #       #     #        |
 |        #     # #  #  # #####      #    #####   ######         |
 |        #     # #   # # #          #    #       #              |
 |        #     # #    ## #          #    #       #              |
 |        ####### #     # #######    #    ####### #              |
 |                                                               |
 |        Linear-Scaling Ab Initio Total Energy Program          |
 |                                                               |
 |          Release for academic collaborators of ODG            |
 |                                             Version 5.3.2.12  |
 |                                                               |
 +---------------------------------------------------------------+
 |                                                               |
 |  Authors:                                                     |
 |  Jacek Dziedzic, Peter D. Haynes, Nicholas D. M. Hine,        |
 |  Arash. A. Mostofi, Mike C. Payne and Chris-Kriton Skylaris   |
 |                                                               |
 |  Contributors:                                                |
 |  J. Aarons, L. Andrinopoulos, P. W. Avraam, R. A. Bell,       |
 |  A. Bhandari, G. A. Bramley, R. J. Charlton, S. J. Clark,     |
 |  R. J. Clements, G. C. Constantinescu, F. Corsetti,           |
 |  N. Corsini, O. Dieguez, S. M. M. Dubois, K. K. B. Duff,      |
 |  J. M. Escartin, A. Greco, H. Helal, Q. O. Hill, L. P. Lee,   |
 |  J.-H. Li, E. B. Linscott, G. Moynihan, D. D. O`Regan,        |
 |  O. K. Okan, M. J. S. Phipps, C. J. Pickard,                  |
 |  J. C. A. Prentice, M. I. J. Probert, L. E. Ratcliff,         |
 |  M. Robinson, A. Ruiz Serrano, J. S. Spencer, E. W. Tait,     |
 |  G. Teobaldi, D. Turban, V. Vitale, K. A. Wilkinson,          |
 |  C. Weber, J. C. Womack, N. Yeung and T. J. Zuehlsdorff       |
 |                                                               |
 |                                   Copyright (c) 2004-2020     |
 |                                                               |
 |  Please cite:                                                 |
 |  "Introducing ONETEP: Linear-scaling density functional       |
 |   simulations on parallel computers".                         |
 |   C.-K. Skylaris, P. D. Haynes, A. A. Mostofi, M. C. Payne.   |
 |   J. Chem. Phys. 122 084119 (2005).                           |
 |                                                               |
 |          in all publications arising from your use of ONETEP. |
 |                                                               |
 +---------------------------------------------------------------+
 |                                                               |
 |   ONETEP is based on developments described in the following  |
 |   publications:                                               |
 |                                                               |
 |  "Nonorthogonal generalized Wannier function pseudopotential  |
 |   plane-wave method".                                         |
 |   C.-K. Skylaris, A. A. Mostofi, P. D. Haynes, O. Dieguez,    |
 |   M. C. Payne.                                                |
 |   Phys. Rev. B 66 035119 (2002).                              |
 |                                                               |
 |  "Preconditioned iterative minimization for linear-scaling    |
 |   electronic structure calculations".                         |
 |   A. A. Mostofi, P. D. Haynes, C.-K. Skylaris, M. C. Payne.   |
 |   J. Chem. Phys. 119(17), pp.8842-8848 (2003).                |
 |                                                               |
 |  "Total-energy calculations on a real space grid with         |
 |   localized functions and a plane-wave basis".                |
 |   A. A. Mostofi, C.-K. Skylaris, P. D. Haynes, M. C. Payne.   |
 |   Comput. Phys. Commun. 147, pp.788-802 (2002).               |
 |                                                               |
 |  "Accurate kinetic energy evaluation in electronic structure  |
 |   calculations with localized functions on real space grids"  |
 |   C.-K. Skylaris, A. A. Mostofi, P. D. Haynes, C. J. Pickard, |
 |   M. C. Payne.                                                |
 |   Comput. Phys. Commun. 140, pp.315-322 (2001).               |
 |                                                               |
 |  "Accurate ionic forces and geometry optimization in linear-  |
 |   scaling density-functional theory with local orbitals"      |
 |   N. D. M. Hine, M. Robinson, P. D. Haynes, C.-K. Skylaris,   |
 |   M. C. Payne, and A. A. Mostofi.                             |
 |   Phys. Rev. B 83 195102 (2011).                              |
 |                                                               |
 +---------------------------------------------------------------+

Job started: 13-10-2020 04:08 (+0100)
 
Reading parameters from file "42/592nano.dat" ...... done

If your calculation crashes here, before "Checking processes and threads..."
is displayed, then your stack size is insufficient.
If so, use "ulimit -s unlimited" at runtime.
You can disable this check with "check_stack_size F".

Checking processes and threads...
   Determining the default number of threads...
      No default threads set at compilation time: defaulting to 1.
      OpenMP library call suggests 4 threads.
      Hybrid MPI-OpenMP compilation detected.
      Number of MPI processes > 1.
      OMP_NUM_THREADS environment variable present and
      its value matches the one obtained from the OpenMP library call.
      Using this value as default.
      Default threads: 4
      Default applies to threads_max and threads_num_fftboxes.
      Settings in the input file override this default.
   ... done

   Running with 160 MPI processes.
   There are 10 MPI processes running on the same node as the root process.
   Each MPI process is using: 
               1 threads for simulation cell FFTs.
               1 threads for parallel FFT box operations.
               4 threads for loops over batched FFT box operations.
               4 threads in other parallel regions.
... done

Basic input checks...
Resetting ngwf_cg_rotate to TRUE for EDFT calculations
... done

Reading geometry and species blocks from file "42/592nano.dat" ...    
  Number of PPD points along a3 set to 1.  This is 
  the default value, it may have been provided also in the input file.
... done
 Writing xyz coordinates to file "42/592nano.xyz" ... done


--------------------------------------------------------------------------------
---------------------------------- INPUT FILE ----------------------------------
--------------------------------------------------------------------------------

task : singlepoint                                                              
do_properties : true                                                            
ddec_classical_hirshfeld T                                                      
dx_format T                                                                     
edft T                                                                          
edft_spin_fix 3                                                                 
output_detail VERBOSE                                                           
write_xyz T                                                                     
dispersion 4                                                                    
xc_functional PBE                                                               
cutoff_energy 830 eV                                                            
paw T                                                                           
geom_disp_tol 0.015 bohr                                                        
geom_energy_tol 1.5E-6 hartree                                                  
geom_force_tol 0.003 "ha/bohr"                                                  
EDFT_MAXIT 30                                                                   
pdos_max_l = 2                                                                  
dos_smear  0.1 eV                                                               
popn_calculate T                                                                
PDOS_PSEUDOATOMIC T                                                             
PDOS_REDUCE_SWS F                                                               
PDOS_CONSTRUCT_BASIS F                                                          
PDOS_LOWDIN T                                                                   
PDOS_ORTH_ATOM_BLOCKS F                                                         
PDOS_LCAO_OPTIMIZE F                                                            
pdos_optados_output T                                                           
homo_plot 0                                                                     
lumo_plot 0                                                                     
homo_dens_plot -1                                                               
lumo_dens_plot -1                                                               
%BLOCK SPECIES                                                                  
C C 6 4 9.0                                                                     
H H 1 1 9.0                                                                     
Li Li 3 5 9.0                                                                   
%ENDBLOCK SPECIES                                                               
%BLOCK SPECIES_POT                                                              
C "~/pp/paw/c_pbe_abinit.paw"                                                   
H "~/pp/paw/h_pbe_abinit.paw"                                                   
Li "~/pp/paw/li_pbe_abinit.paw"                                                 
%ENDBLOCK SPECIES_POT                                                           
%BLOCK SPECIES_ATOMIC_SET                                                       
C "SOLVE conf=2s2 2p2"                                                          
H "SOLVE conf=1s1"                                                              
Li "SOLVE conf=1s2 2s1 2p0"                                                     
%ENDBLOCK SPECIES_ATOMIC_SET                                                    
%BLOCK SPECIES_LDOS_GROUPS                                                      
C                                                                               
H                                                                               
Li                                                                              
%ENDBLOCK SPECIES_LDOS_GROUPS                                                   
%BLOCK LATTICE_CART                                                             
94.486315650000      0.000000000000       0.000000000000                        
0.000000000000       94.486315650000      0.000000000000                        
0.000000000000       0.000000000000       94.486315650000                       
%ENDBLOCK LATTICE_CART                                                          
%BLOCK POSITIONS_ABS                                                            
C 45.475241 50.704730 30.224234                                                 
C 45.449912 50.600103 36.290504                                                 
C 46.816434 53.051999 30.191647                                                 
C 48.157423 50.604364 36.418039                                                 
C 49.535705 48.383574 30.149230                                                 
C 49.511378 48.263303 36.466637                                                 
C 50.877965 50.729840 30.135833                                                 
C 52.199996 48.267555 36.574351                                                 
C 45.454158 55.383822 30.100885                                                 
C 45.454736 55.292441 36.325256                                                 
C 46.794340 57.722957 29.942841                                                 
C 48.157194 55.297316 36.451157                                                 
C 49.516528 53.060726 30.155085                                                 
C 49.498838 52.945494 36.507509                                                 
C 50.857407 55.405054 30.026335                                                 
C 52.192551 52.952408 36.632143                                                 
C 45.429700 50.491026 43.551483                                                 
C 45.389052 50.412235 49.575915                                                 
C 46.779481 52.841535 43.486701                                                 
C 48.092666 50.415282 49.591333                                                 
C 49.498182 48.144847 43.380775                                                 
C 49.443223 48.076764 49.651563                                                 
C 50.844769 50.492423 43.346467                                                 
C 52.140369 48.079047 49.800607                                                 
C 45.424889 55.180495 43.551739                                                 
C 45.384089 55.090574 49.678914                                                 
C 46.765176 57.519391 43.443609                                                 
C 48.084706 55.095398 49.677954                                                 
C 49.478751 52.836595 43.370588                                                 
C 49.438271 52.757620 49.640984                                                 
C 50.817833 55.173753 43.294900                                                 
C 52.134870 52.761651 49.765191                                                 
C 57.624538 48.426594 29.575541                                                 
C 57.570107 48.280759 36.673778                                                 
C 58.971593 50.776308 29.519976                                                 
C 60.275521 48.284368 36.599346                                                 
C 57.601497 48.160805 43.355990                                                 
C 57.494580 48.083243 50.374694                                                 
C 58.948964 50.511544 43.315798                                                 
C 60.204626 48.088541 50.719822                                                 
C 53.576401 50.743872 29.984854                                                 
C 53.538671 50.618381 36.649832                                                 
C 54.911191 53.089556 29.876425                                                 
C 56.241179 50.628683 36.701861                                                 
C 53.535009 50.498315 43.288431                                                 
C 53.482155 50.420774 49.869829                                                 
C 54.877879 52.844894 43.207944                                                 
C 56.170885 50.420061 50.156025                                                 
C 57.642186 43.761268 29.330324                                                 
C 57.624293 43.595492 36.610552                                                 
C 58.984707 46.084475 29.344182                                                 
C 60.361001 43.594506 36.657574                                                 
C 57.602835 43.480854 43.265668                                                 
C 57.521352 43.408897 50.536745                                                 
C 58.955936 45.814297 43.375318                                                 
C 60.219457 43.408607 50.852697                                                 
C 53.590872 46.073868 29.820005                                                 
C 53.554929 45.915100 36.586749                                                 
C 54.930822 48.413246 29.827317                                                 
C 56.253105 45.924412 36.632116                                                 
C 53.553065 45.821560 43.273269                                                 
C 53.486755 45.739724 49.982758                                                 
C 54.905551 48.157310 43.306254                                                 
C 56.172725 45.752341 50.274910                                                 
C 57.586588 57.777034 29.491752                                                 
C 57.585155 57.648504 36.822330                                                 
C 58.917672 60.140912 29.271248                                                 
C 60.308833 57.651445 36.805233                                                 
C 57.560760 57.524265 43.012554                                                 
C 57.522941 57.439892 50.282525                                                 
C 58.920213 59.880355 42.949675                                                 
C 60.242705 57.425631 50.520541                                                 
C 45.428341 64.709220 29.204641                                                 
C 45.443292 64.660753 36.483397                                                 
C 46.792614 67.053491 28.947145                                                 
C 48.146559 64.677041 36.389093                                                 
C 49.470170 62.378684 29.377190                                                 
C 49.514628 62.322097 36.482849                                                 
C 50.841442 64.746702 29.070995                                                 
C 52.229614 62.321152 36.595688                                                 
C 45.409704 64.540478 43.215566                                                 
C 45.389552 64.423146 50.420424                                                 
C 46.768708 66.897694 43.136147                                                 
C 48.078310 64.426841 50.460721                                                 
C 49.454666 62.180460 43.381494                                                 
C 49.427758 62.094712 50.253391                                                 
C 50.807410 64.534598 43.554027                                                 
C 52.109577 62.106367 50.379154                                                 
C 53.535873 60.075494 29.596436                                                 
C 53.551456 59.976879 36.711117                                                 
C 54.886898 62.447732 29.396484                                                 
C 56.248112 59.984899 36.807348                                                 
C 53.505298 59.844977 43.164044                                                 
C 53.464731 59.776536 50.179310                                                 
C 54.872273 62.203179 43.126290                                                 
C 56.183215 59.776010 50.291485                                                 
C 57.609133 53.103766 29.637891                                                 
C 57.569870 52.971603 36.778726                                                 
C 58.949220 55.464184 29.454866                                                 
C 60.298041 53.004275 36.790200                                                 
C 57.582954 52.848734 43.152024                                                 
C 57.502176 52.765052 50.289705                                                 
C 58.923353 55.200045 43.036092                                                 
C 60.221349 52.778274 50.636729                                                 
C 45.435021 60.049845 29.744106                                                 
C 45.457673 59.984806 36.402193                                                 
C 46.784456 62.378530 29.455530                                                 
C 48.152174 59.979759 36.468393                                                 
C 49.495718 57.731487 29.906229                                                 
C 49.496510 57.634114 36.524472                                                 
C 50.837972 60.066790 29.650750                                                 
C 52.200076 57.641204 36.660420                                                 
C 45.399609 59.870603 43.415577                                                 
C 45.384764 59.758492 49.977992                                                 
C 46.755596 62.195989 43.343001                                                 
C 48.080884 59.766363 49.984630                                                 
C 49.462588 57.511692 43.331562                                                 
C 49.430416 57.434294 49.829335                                                 
C 50.814110 59.857746 43.292073                                                 
C 52.127868 57.438328 49.925138                                                 
C 53.553025 55.415357 29.901013                                                 
C 53.537659 55.305563 36.707157                                                 
C 54.885065 57.763972 29.697010                                                 
C 56.228295 55.306964 36.785737                                                 
C 53.526012 55.172684 43.197050                                                 
C 53.478066 55.104343 49.892187                                                 
C 54.863423 57.514936 43.115858                                                 
C 56.170052 55.099589 50.117994                                                 
H 27.313489 41.282985 28.854057                                                 
H 28.236663 39.401419 36.612581                                                 
H 27.199593 41.106666 42.954066                                                 
H 28.199909 39.290325 50.584477                                                 
H 41.875814 30.228857 28.942227                                                 
C 42.895026 32.024117 29.051257                                                 
H 44.454927 30.118599 36.676342                                                 
H 41.795449 29.948669 43.369825                                                 
C 42.805402 31.749373 43.297532                                                 
H 44.385262 29.976008 50.787132                                                 
H 29.650802 37.202437 29.043422                                                 
C 30.677058 38.993225 29.126794                                                 
H 32.316869 37.088416 36.626127                                                 
H 33.724361 34.843862 29.086722                                                 
C 34.752994 36.630926 29.221403                                                 
H 29.541655 37.025165 42.919275                                                 
C 30.574753 38.815205 42.949443                                                 
H 32.266518 36.949204 50.633245                                                 
H 33.550989 34.662935 43.318467                                                 
C 34.606939 36.438052 43.243399                                                 
H 37.796066 32.540453 28.889193                                                 
C 38.814884 34.332848 29.057752                                                 
H 40.395176 32.457555 36.193886                                                 
H 37.637684 32.283197 43.892888                                                 
C 38.664149 34.061875 43.680554                                                 
H 40.334914 32.318788 50.786468                                                 
H 46.577848 30.270349 29.067727                                                 
H 46.490695 29.995355 42.902125                                                 
H 25.808874 48.167993 35.612033                                                 
C 27.853248 48.198364 35.907623                                                 
H 25.823386 48.031667 50.974624                                                 
C 27.884060 48.040697 50.801715                                                 
H 25.866049 43.435387 36.017228                                                 
H 27.310510 45.977450 28.762611                                                 
C 27.925141 43.465016 36.203992                                                 
H 25.834744 43.355505 50.746087                                                 
H 27.178976 45.789008 43.444152                                                 
C 27.899215 43.357232 50.652555                                                 
H 25.812310 57.674912 36.194502                                                 
H 27.209593 59.928905 28.822805                                                 
C 27.876161 57.652170 36.296227                                                 
H 25.832226 57.393706 51.129140                                                 
H 27.127060 59.826087 43.539275                                                 
C 27.897418 57.398049 51.043030                                                 
H 25.793427 52.943243 35.605182                                                 
H 27.259526 55.232886 28.774256                                                 
C 27.835230 52.928917 35.908716                                                 
H 25.815502 52.709739 51.056814                                                 
H 27.144642 55.104078 43.616418                                                 
C 27.877158 52.707837 50.912434                                                 
C 29.374414 41.277490 28.996524                                                 
C 29.251621 41.198391 36.516251                                                 
C 30.658254 43.637957 29.073117                                                 
C 31.928138 41.166122 36.685496                                                 
C 33.370224 38.916609 29.257171                                                 
C 33.335501 38.887934 36.583966                                                 
C 34.715499 41.299977 29.432674                                                 
C 35.993713 38.874368 36.693866                                                 
C 29.370864 45.976531 28.932501                                                 
C 29.170065 45.810837 36.151500                                                 
C 30.668540 48.288386 28.883393                                                 
C 31.922896 45.847146 36.400162                                                 
C 33.374913 43.630310 29.346204                                                 
C 33.288665 43.525644 36.574536                                                 
C 34.725928 45.978303 29.477580                                                 
C 35.986776 43.554189 36.581770                                                 
C 29.268051 41.097912 42.986111                                                 
C 29.219983 41.087616 50.564693                                                 
C 30.551788 43.441157 43.046376                                                 
C 31.907590 41.030205 50.468383                                                 
C 33.237559 38.748287 43.006102                                                 
C 33.292225 38.740202 50.504162                                                 
C 34.606728 41.114914 43.060331                                                 
C 35.945661 38.715828 50.577966                                                 
C 29.247907 45.788401 43.366428                                                 
C 29.178539 45.733432 50.649621                                                 
C 30.556887 48.104927 43.515121                                                 
C 31.904140 45.723724 50.429548                                                 
C 33.272378 43.451704 43.120653                                                 
C 33.251363 43.399045 50.351442                                                 
C 34.625252 45.784968 43.288592                                                 
C 35.959730 43.401345 50.179565                                                 
C 41.475952 39.002023 29.526358                                                 
C 41.415257 38.910121 36.472889                                                 
C 42.812786 41.340212 29.768801                                                 
C 44.107267 38.894648 36.545840                                                 
C 41.380986 38.752192 43.327995                                                 
C 41.373651 38.754366 50.406868                                                 
C 42.727862 41.095589 43.309367                                                 
C 44.056439 38.738278 50.259934                                                 
C 37.433560 41.307109 29.581749                                                 
C 37.353903 41.232450 36.617652                                                 
C 38.763918 43.652499 29.808553                                                 
C 40.052264 41.226351 36.520312                                                 
C 37.313449 41.106732 43.200989                                                 
C 37.309486 41.083776 50.307322                                                 
C 38.665855 43.445143 43.298749                                                 
C 40.006756 41.071672 50.182682                                                 
C 41.466617 34.313760 29.117225                                                 
C 41.427276 34.248837 36.366002                                                 
C 42.832993 36.673065 29.329989                                                 
C 44.106841 34.189203 36.686418                                                 
C 41.392813 34.009231 43.460995                                                 
C 41.366120 34.106908 50.652708                                                 
C 42.749720 36.405704 43.313242                                                 
C 44.043387 34.055989 50.693772                                                 
C 37.433968 36.591640 29.182769                                                 
C 37.385840 36.588589 36.430556                                                 
C 38.793480 38.977309 29.423759                                                 
C 40.067202 36.552921 36.303967                                                 
C 37.258169 36.370993 43.408030                                                 
C 37.339206 36.431251 50.519894                                                 
C 38.652649 38.753323 43.316768                                                 
C 40.004153 36.389996 50.697724                                                 
C 41.437339 48.346540 30.100788                                                 
C 41.374090 48.245543 36.292288                                                 
C 42.773256 50.693621 30.168056                                                 
C 44.090818 48.248515 36.180861                                                 
C 41.355302 48.137608 43.517239                                                 
C 41.341241 48.069501 49.688884                                                 
C 42.708098 50.487943 43.577005                                                 
C 44.042062 48.070573 49.611604                                                 
C 29.320993 55.262478 28.930972                                                 
C 29.134114 55.320109 36.187054                                                 
C 30.582911 57.616726 29.017605                                                 
C 31.893767 55.306565 36.400134                                                 
C 33.373171 52.987325 29.225904                                                 
C 33.242626 52.944384 36.419260                                                 
C 34.675558 55.327293 29.453213                                                 
C 35.957275 52.944971 36.413868                                                 
C 29.211679 55.135648 43.525883                                                 
C 29.177812 55.038061 50.933132                                                 
C 30.490478 57.507133 43.490263                                                 
C 31.901027 55.057418 50.702567                                                 
C 33.267829 52.821612 43.456797                                                 
C 33.253105 52.713386 50.453118                                                 
C 34.594093 55.182922 43.506207                                                 
C 35.943579 52.728042 50.140788                                                 
C 37.392096 50.667016 29.791505                                                 
C 37.318267 50.587251 36.397285                                                 
C 38.720937 53.017830 29.910781                                                 
C 40.005900 50.590150 36.321638                                                 
C 37.311308 50.479600 43.456649                                                 
C 37.289201 50.400883 49.942671                                                 
C 38.647658 52.833688 43.539188                                                 
C 39.987955 50.405153 49.747550                                                 
C 41.458329 43.666537 29.925447                                                 
C 41.395636 43.570452 36.449587                                                 
C 42.795066 46.012405 30.088584                                                 
C 44.097308 43.568455 36.422449                                                 
C 41.371461 43.438466 43.356736                                                 
C 41.351212 43.400673 49.902510                                                 
C 42.714201 45.772812 43.466629                                                 
C 44.051789 43.397746 49.818395                                                 
C 29.371981 50.620958 28.961826                                                 
C 29.110853 50.563847 36.051307                                                 
C 30.645271 52.964018 28.878680                                                 
C 31.878493 50.580721 36.358714                                                 
C 33.397940 48.301879 29.235994                                                 
C 33.258287 48.213527 36.432185                                                 
C 34.710859 50.651109 29.434323                                                 
C 35.970787 48.234386 36.462652                                                 
C 29.248334 50.457709 43.381197                                                 
C 29.166245 50.361052 50.792810                                                 
C 30.553760 52.815461 43.454905                                                 
C 31.905830 50.374831 50.522837                                                 
C 33.280595 48.129307 43.383659                                                 
C 33.253618 48.061066 50.303376                                                 
C 34.606347 50.472575 43.419283                                                 
C 35.943672 48.064733 50.041317                                                 
C 37.409725 45.984427 29.778493                                                 
C 37.321980 45.908087 36.491746                                                 
C 38.742618 48.333189 29.919320                                                 
C 40.034058 45.906640 36.416341                                                 
C 37.319755 45.781097 43.340548                                                 
C 37.297502 45.734378 49.976876                                                 
C 38.656375 48.137669 43.442418                                                 
C 39.995844 45.732277 49.820319                                                 
C 45.521191 32.046644 29.110090                                                 
C 45.494626 31.905631 36.683983                                                 
C 46.905509 34.349208 29.211429                                                 
C 48.124685 31.899990 36.713194                                                 
H 49.160873 30.111706 36.689099                                                 
H 50.624298 32.632635 29.054180                                                 
C 45.519781 36.691482 29.351993                                                 
C 45.452768 36.552170 36.662710                                                 
C 46.862574 39.042580 29.520215                                                 
C 48.143414 36.543635 36.719683                                                 
C 49.581288 34.413238 29.185515                                                 
C 49.506892 34.174591 36.717318                                                 
C 50.924273 36.702227 29.160399                                                 
C 52.193578 34.217264 36.484068                                                 
C 45.449738 31.772589 43.028774                                                 
C 45.431823 31.755060 50.673994                                                 
C 46.822784 34.068327 43.001392                                                 
C 48.052974 31.735720 50.531379                                                 
H 49.078581 29.941009 50.539036                                                 
H 50.555223 32.369538 42.875033                                                 
C 45.448384 36.426511 43.143718                                                 
C 45.410681 36.395473 50.434106                                                 
C 46.779620 38.776523 43.140311                                                 
C 48.095846 36.376767 50.355864                                                 
C 49.502681 34.146488 42.968448                                                 
C 49.463985 34.011148 50.460342                                                 
C 50.825814 36.435738 42.948148                                                 
C 52.143340 34.047396 50.387938                                                 
H 53.204554 32.418733 36.345350                                                 
H 53.172180 32.258100 50.474536                                                 
C 57.624672 39.109601 29.238735                                                 
C 57.675417 38.873120 36.356017                                                 
C 58.994839 41.412512 29.089868                                                 
C 60.338207 38.953431 36.494481                                                 
C 57.563327 38.820330 43.275547                                                 
C 57.552608 38.708547 50.682143                                                 
C 58.973483 41.114995 43.265004                                                 
C 60.224379 38.787213 50.858725                                                 
C 45.493722 46.026120 30.119951                                                 
C 45.450481 45.903485 36.327696                                                 
C 46.835216 48.371344 30.202200                                                 
C 48.163773 45.907847 36.429015                                                 
C 49.548805 43.715846 29.873717                                                 
C 49.502269 43.580076 36.511561                                                 
C 50.893156 46.056474 29.985432                                                 
C 52.214960 43.579831 36.544617                                                 
C 45.436498 45.783809 43.458509                                                 
C 45.396180 45.733185 49.663796                                                 
C 46.790816 48.141560 43.489605                                                 
C 48.097728 45.734074 49.679495                                                 
C 49.483730 43.470876 43.252723                                                 
C 49.448282 43.397451 49.827632                                                 
C 50.839800 45.813842 43.299504                                                 
C 52.144975 43.402920 49.975317                                                 
C 53.594568 41.425623 29.405583                                                 
C 53.567198 41.239927 36.519880                                                 
C 54.939633 43.748680 29.542281                                                 
C 56.285985 41.249104 36.505482                                                 
C 53.525963 41.162285 43.155844                                                 
C 53.490319 41.065385 50.219373                                                 
C 54.895710 43.489381 43.225799                                                 
C 56.194848 41.073255 50.486817                                                 
H 57.285946 34.783202 35.753856                                                 
H 58.659022 37.323187 29.102431                                                 
H 57.238823 34.622212 50.668459                                                 
H 58.580040 37.018929 43.462590                                                 
C 45.508075 41.359835 29.770375                                                 
C 45.458915 41.228364 36.522315                                                 
C 46.850525 43.698899 29.951230                                                 
C 48.151172 41.231917 36.554163                                                 
C 49.547498 39.061400 29.423036                                                 
C 49.497542 38.889856 36.623235                                                 
C 50.901111 41.393319 29.587094                                                 
C 52.206006 38.879915 36.519056                                                 
C 45.425081 41.107642 43.257929                                                 
C 45.405080 41.063682 49.975595                                                 
C 46.784268 43.450893 43.310509                                                 
C 48.099337 41.060931 49.955349                                                 
C 49.477532 38.800090 43.060422                                                 
C 49.448904 38.722078 50.160545                                                 
C 50.829874 41.132622 43.151922                                                 
C 52.150422 38.717953 50.251093                                                 
C 53.599668 36.769435 29.268932                                                 
C 53.565339 36.486404 36.376878                                                 
C 54.966202 39.060296 29.139612                                                 
C 56.265880 36.552658 36.070422                                                 
C 53.504941 36.506415 43.277886                                                 
C 53.525684 36.332802 50.435103                                                 
C 54.881832 38.818339 43.179538                                                 
C 56.196436 36.401847 50.547611                                                 
H 61.390549 37.175728 36.430422                                                 
H 62.703544 39.686110 28.941510                                                 
H 61.258157 36.999838 50.956059                                                 
H 62.660026 39.367960 43.415356                                                 
H 28.185413 61.725544 36.611073                                                 
H 28.194463 61.452321 51.179217                                                 
C 29.273105 59.958183 28.911608                                                 
C 29.214077 59.934764 36.506477                                                 
C 30.565682 62.263158 28.943168                                                 
C 31.878396 59.986704 36.557832                                                 
C 33.303872 57.659185 29.284459                                                 
C 33.257465 57.635987 36.475336                                                 
C 34.622868 60.008505 29.332755                                                 
C 35.956354 57.621887 36.432501                                                 
H 29.512771 64.036146 28.818804                                                 
H 32.288276 64.100237 36.358462                                                 
C 33.251983 62.371818 29.035881                                                 
C 33.291399 62.288198 36.316214                                                 
C 34.628685 64.676881 28.930822                                                 
C 35.988062 62.292704 36.368343                                                 
C 29.191167 59.836820 43.534877                                                 
C 29.215009 59.654656 51.073109                                                 
C 30.498662 62.150739 43.616304                                                 
C 31.895793 59.716778 50.991833                                                 
C 33.227259 57.520054 43.502509                                                 
C 33.246975 57.381244 50.700386                                                 
C 34.560248 59.873649 43.552218                                                 
C 35.950471 57.393943 50.413157                                                 
H 29.440906 63.926282 43.650141                                                 
H 32.256947 63.805234 51.217621                                                 
C 33.164648 62.251524 43.626549                                                 
C 33.271307 62.033468 50.836218                                                 
C 34.558635 64.611882 43.599732                                                 
C 35.946359 62.063572 50.798556                                                 
C 41.393657 57.707579 29.908648                                                 
C 41.382928 57.635337 36.323169                                                 
C 42.738922 60.042699 29.746172                                                 
C 44.100756 57.641764 36.323987                                                 
C 41.343423 57.532544 43.587387                                                 
C 41.332989 57.414195 49.960491                                                 
C 42.702499 59.879565 43.449448                                                 
C 44.033795 57.422087 49.835673                                                 
C 37.334831 60.030776 29.553381                                                 
C 37.337386 59.952832 36.432877                                                 
C 38.682534 62.375731 29.407078                                                 
C 40.038558 59.982746 36.413630                                                 
C 37.275216 59.885149 43.539030                                                 
C 37.301293 59.711964 50.477723                                                 
C 38.632785 62.239093 43.465408                                                 
C 39.985607 59.738869 50.251541                                                 
C 41.414013 53.028191 30.088846                                                 
C 41.368355 52.941806 36.275080                                                 
C 42.751955 55.376510 30.066093                                                 
C 44.091621 52.939087 36.281097                                                 
C 41.340228 52.835411 43.606909                                                 
C 41.334494 52.744112 49.723133                                                 
C 42.695334 55.193298 43.700107                                                 
C 44.034535 52.749212 49.626334                                                 
C 37.363020 55.353301 29.759369                                                 
C 37.292549 55.275838 36.388789                                                 
C 38.690415 57.698504 29.791142                                                 
C 40.018565 55.284415 36.311760                                                 
C 37.287832 55.193571 43.548657                                                 
C 37.287523 55.066560 50.120088                                                 
C 38.622987 57.540711 43.558360                                                 
C 39.982038 55.077492 49.899563                                                 
C 41.369658 67.067224 29.055017                                                 
C 41.392642 66.954975 36.625428                                                 
C 42.771703 69.352695 28.993438                                                 
C 44.079170 67.024904 36.588340                                                 
C 41.362001 66.928764 43.174053                                                 
C 41.342616 66.714798 50.684059                                                 
C 42.753678 69.196737 43.101036                                                 
C 44.018116 66.771476 50.600977                                                 
H 37.670553 68.819535 28.911751                                                 
H 40.350748 68.739011 36.720610                                                 
H 37.666607 68.706587 43.470430                                                 
H 40.308989 68.498519 50.856948                                                 
C 41.383287 62.374708 29.483508                                                 
C 41.399202 62.301787 36.498034                                                 
C 42.743033 64.714720 29.231987                                                 
C 44.095247 62.319445 36.456270                                                 
C 41.349961 62.217709 43.338936                                                 
C 41.349029 62.071428 50.383862                                                 
C 42.717298 64.555498 43.190797                                                 
C 44.033471 62.082672 50.225526                                                 
H 33.599319 66.445922 28.650637                                                 
H 33.522624 66.401030 43.523106                                                 
C 37.303121 64.748162 29.079451                                                 
C 37.364972 64.611641 36.318236                                                 
C 38.691135 67.029743 29.071753                                                 
C 40.054646 64.675310 36.624605                                                 
C 37.285754 64.644415 43.536439                                                 
C 37.311481 64.367858 50.751305                                                 
C 38.675172 66.902024 43.423716                                                 
C 39.999527 64.430610 50.728691                                                 
C 61.677904 41.479572 29.050640                                                 
C 61.653111 41.265173 36.672451                                                 
C 62.991745 43.747358 29.097226                                                 
H 63.716798 41.265406 36.753071                                                 
C 61.715125 46.102230 29.180856                                                 
C 61.626437 45.973301 36.567584                                                 
C 63.014850 48.443802 29.256334                                                 
H 63.695603 46.005926 36.399044                                                 
H 65.057944 43.750924 29.030398                                                 
C 61.632050 41.157515 43.379829                                                 
C 61.512037 41.066244 50.939014                                                 
C 62.965446 43.455387 43.502642                                                 
H 63.574349 41.088999 51.099190                                                 
C 61.700411 45.798656 43.489563                                                 
C 61.527106 45.763180 50.752670                                                 
C 63.031444 48.182650 43.570206                                                 
H 63.565422 45.775720 51.148232                                                 
H 65.030183 43.440594 43.601126                                                 
C 61.669603 55.468459 29.261631                                                 
C 61.600922 55.300607 36.748704                                                 
C 62.935068 57.840501 29.197555                                                 
H 63.669944 55.295932 36.762812                                                 
H 65.055822 53.161608 29.156339                                                 
C 61.656008 55.218059 43.072714                                                 
C 61.527692 55.076730 50.600832                                                 
C 62.928453 57.554760 43.052445                                                 
H 63.585667 55.073073 50.799803                                                 
H 65.030716 52.880455 43.349785                                                 
C 61.723343 50.786526 29.310869                                                 
C 61.572870 50.648213 36.405210                                                 
C 62.992980 53.140488 29.282990                                                 
H 65.077455 48.444162 29.140210                                                 
C 61.690220 50.551056 43.423641                                                 
C 61.511425 50.422020 50.677501                                                 
C 62.964514 52.870285 43.286275                                                 
H 65.101526 48.187110 43.573988                                                 
H 41.733375 71.139133 28.951826                                                 
H 44.430001 71.092855 36.669146                                                 
H 41.723510 70.989576 43.092634                                                 
H 44.365835 70.849150 50.774466                                                 
C 45.386774 69.351207 28.937008                                                 
C 45.465491 69.310315 36.563158                                                 
H 46.427965 71.135636 28.851272                                                 
C 48.111189 69.334153 36.342711                                                 
C 49.458835 67.027965 29.064874                                                 
C 49.524146 67.059661 36.234717                                                 
H 50.488129 68.818562 28.944652                                                 
C 52.235380 66.999342 36.089863                                                 
H 49.127289 71.130982 36.278152                                                 
C 45.382245 69.185801 43.099917                                                 
C 45.410602 69.067379 50.717737                                                 
H 46.425498 70.971372 43.059799                                                 
C 48.039195 69.072176 50.784122                                                 
C 49.451086 66.842190 43.442592                                                 
C 49.451430 66.776242 50.715825                                                 
H 50.488705 68.632153 43.550221                                                 
C 52.103364 66.742101 50.802155                                                 
H 49.072408 70.858281 50.892965                                                 
H 57.324251 66.423099 36.492130                                                 
H 57.184502 66.220540 50.786581                                                 
H 53.266467 68.776907 35.889898                                                 
H 53.125515 68.531044 50.978216                                                 
C 57.542891 62.423707 29.381481                                                 
C 57.614350 62.353199 36.793774                                                 
H 58.563829 64.217722 29.246987                                                 
C 60.294875 62.282573 36.806411                                                 
C 57.535543 62.168856 43.214227                                                 
C 57.536496 62.150370 50.518826                                                 
H 58.561191 63.965009 43.176956                                                 
C 60.229699 62.066752 50.599002                                                 
C 53.501073 64.715937 29.194091                                                 
C 53.638388 64.699105 36.428372                                                 
C 56.268226 64.648266 36.595700                                                 
C 53.490013 64.490987 43.416026                                                 
C 53.474475 64.480862 50.662726                                                 
C 56.156877 64.434961 50.629863                                                 
C 61.613655 60.087429 29.211761                                                 
C 61.601732 59.992506 36.801576                                                 
H 62.622508 61.891814 29.130305                                                 
H 63.667596 59.976561 36.780748                                                 
H 65.001366 57.849418 29.110694                                                 
H 61.327947 64.071470 36.765472                                                 
C 61.599965 59.827998 42.981520                                                 
C 61.532117 59.776696 50.651540                                                 
H 62.622453 61.623089 42.944383                                                 
H 63.593217 59.762922 50.784536                                                 
H 64.995896 57.562138 43.096213                                                 
H 61.260635 63.851705 50.725994                                                 
H 63.545869 50.430470 51.089069                                                 
H 36.312212 34.640577 50.649124                                                 
H 36.295298 66.131970 51.159853                                                 
H 27.184000 50.463337 43.557085                                                 
H 54.528741 66.281092 43.518621                                                 
H 63.646858 50.643137 36.265199                                                 
H 54.546438 34.710216 43.395498                                                 
H 36.343220 34.800814 36.281783                                                 
H 36.316293 66.398744 36.350502                                                 
H 54.524568 66.506731 29.044974                                                 
H 27.309438 50.609665 28.813302                                                 
H 54.636971 34.984374 29.134978                                                 
Li 58.920111 60.137149 33.266778                                                
Li 30.307237 43.393120 47.029219                                                
Li 44.087154 34.097935 32.698259                                                
Li 46.868011 67.051400 47.113302                                                
Li 60.226849 43.223295 46.886427                                                
Li 31.357348 59.953642 32.590549                                                
Li 51.293184 64.308773 32.922459                                                
Li 40.209848 65.170319 32.715577                                                
Li 60.176149 53.220218 46.697632                                                
Li 30.123147 52.819876 47.296431                                                
Li 35.453622 38.933397 46.678538                                                
Li 55.324729 38.630088 47.021334                                                
Li 36.102534 38.539008 32.800064                                                
Li 50.412190 36.278795 33.074125                                                
Li 39.984603 36.413071 46.858810                                                
Li 50.693074 36.011538 46.858011                                                
Li 54.837813 62.595069 47.017660                                                
Li 40.376363 64.745285 46.823077                                                
Li 30.731309 53.275754 32.748687                                                
Li 30.757424 47.913809 32.753921                                                
Li 31.648875 59.721874 47.063808                                                
Li 60.656586 53.411181 32.874568                                                
Li 54.755940 38.979472 32.967283                                                
Li 60.617293 48.111608 32.783082                                                
Li 46.479695 67.271581 32.914279                                                
Li 59.453943 59.735952 46.930521                                                
Li 31.465833 41.363677 32.705483                                                
Li 44.680000 33.709713 46.721395                                                
Li 59.432958 41.417975 33.034432                                                
Li 35.544512 63.097030 40.064985                                                
Li 30.104428 47.917525 39.636313                                                
Li 34.880494 64.037026 47.417331                                                
Li 51.357592 65.520254 39.809446                                                
Li 39.196995 34.960347 39.847375                                                
Li 62.491624 48.529111 39.803406                                                
Li 62.410747 48.139549 47.355164                                                
Li 56.053888 36.784458 39.953468                                                
Li 29.830407 53.211572 39.655214                                                
Li 44.107795 48.177098 40.081990                                                
Li 42.719417 55.308021 39.773988                                                
Li 35.604053 62.903727 32.591244                                                
Li 30.245160 40.493520 39.743640                                                
%ENDBLOCK POSITIONS_ABS                                                         

--------------------------------------------------------------------------------
-------------------------------- END INPUT FILE --------------------------------
--------------------------------------------------------------------------------


 
<<<<<<<<<<<<<<<<<<<<<<<<<<<<<<<<< Full system >>>>>>>>>>>>>>>>>>>>>>>>>>>>>>>>>>
<<<<<<<<<<<<<<<<<<<<<<<<<<< PAW Dataset information >>>>>>>>>>>>>>>>>>>>>>>>>>>
File: ~/pp/paw/c_pbe_abinit.paw; rc = 1.25 bohr; shape type =  3; rshape = 1.25 bohr;
  Atomic number:  6;  ionic charge:  4.000000
    Partial Wave 1: l = 0
    Partial Wave 2: l = 0
    Partial Wave 3: l = 1
    Partial Wave 4: l = 1
  Core charge supplied for Nonlinear Core Corrections
File: ~/pp/paw/h_pbe_abinit.paw; rc = 0.90 bohr; shape type =  3; rshape = 0.90 bohr;
  Atomic number:  1;  ionic charge:  1.000000
    Partial Wave 1: l = 0
    Partial Wave 2: l = 0
File: ~/pp/paw/li_pbe_abinit.paw; rc = 1.42 bohr; shape type =  3; rshape = 1.42 bohr;
  Atomic number:  3;  ionic charge:  3.000000
    Partial Wave 1: l = 0
    Partial Wave 2: l = 0
    Partial Wave 3: l = 0
    Partial Wave 4: l = 1
    Partial Wave 5: l = 1
<<<<<<<<<<<<<<<<<<<<<<<<<<<<<<<<<<<<<<< >>>>>>>>>>>>>>>>>>>>>>>>>>>>>>>>>>>>>>>

-------------------------- Atom counting information ---------------------------
Symbol    Natoms    Nngwfs    Nprojs
  C        484      1936      3872
  H        108       108       216
  Li        42       210       378
.......   ......    ......    ......
Totals:    634      2254      4466
--------------------------------------------------------------------------------

=============================== PSINC grid sizes ===============================
                      Simulation cell:  189 x 189 x 189
                              FFT-box:  117 x 117 x 117
                                  PPD:    7 x   7 x   1
Grid space d1=  0.499927596032a0 (KE cutoff=  30.39413Eh = 827.06648eV)
Grid space d2=  0.499927596032a0 (KE cutoff=  30.39413Eh = 827.06648eV)
Grid space d3=  0.499927596032a0 (KE cutoff=  30.39413Eh = 827.06648eV)
================================================================================
  
WARNING in cell_grid_distribute:
Average of less than one 23-slab per node, so workload cannot be
equally balanced between nodes.

********************* Fourier parallelisation information **********************
       Coarse grid (whole simulation cell) dimensions:    189   189   189
          Real-space ('12') slabs/node (min max mean):      1     2     1
         Recip-space ('23') slabs/node (min max mean):      0     1     0
********************************************************************************

********************* Fourier parallelisation information **********************
       Double grid (whole simulation cell) dimensions:    378   378   378
          Real-space ('12') slabs/node (min max mean):      2     3     2
         Recip-space ('23') slabs/node (min max mean):      1     2     1
********************************************************************************

Atom SCF Calculation for C  : Z (AE atom) =   6 : Z (PS atom) =   4
Config String: 2s2 2p2
Orbitals (num,occ):  2     2.00 2.00
Orbitals   (num,l):  2        0    1
Real-space Grid (nr,dr,rmax): 1377    0.0065406977    9.0000000000
Spherical Bessel Basis (nsws,lmax,cutoff):   37    2  183.0099912382
Confining potential (l,width,scale):  0    3.0000000000  100.0000000000
Confining potential (l,width,scale):  1    3.0000000000  100.0000000000
  1         -5.4350126632   -1.2715272878    4.5135247139   -1.5681949477
  2         -5.3876836850   -1.3562195125    4.4235426751   -1.5380057521
  3         -5.3928844498   -1.3758175853    4.4021699684   -1.5318377811
  4         -5.3988962903   -1.3800385428    4.3975423583   -1.5307324410
  5         -5.4018428823   -1.3823489590    4.3950111904   -1.5301555648
  6         -5.4033571720   -1.3835805046    4.3936635548   -1.5298576834
  7         -5.4041480647   -1.3842324820    4.3929512000   -1.5297032953
  8         -5.4045641108   -1.3845769138    4.3925755232   -1.5296229456
  9         -5.4047838258   -1.3847587737    4.3923775340   -1.5295810042
 10         -5.4049001347   -1.3848548089    4.3922731819   -1.5295590658
 11         -5.4049618018   -1.3849055476    4.3922181562   -1.5295475724
 12         -5.4049945351   -1.3849323732    4.3921891206   -1.5295415432
 13         -5.4050119258   -1.3849465673    4.3921737867   -1.5295383767
 14         -5.4050211723   -1.3849540841    4.3921656816   -1.5295367119
 15         -5.4050260920   -1.3849580684    4.3921613935   -1.5295358358
 16         -5.4050287113   -1.3849601822    4.3921591228   -1.5295353742
 17         -5.4050301068   -1.3849613045    4.3921579192   -1.5295351307
 18         -5.4050308507   -1.3849619010    4.3921572806   -1.5295350022
 19         -5.4050312476   -1.3849622183    4.3921569415   -1.5295349343
 20         -5.4050314594   -1.3849623873    4.3921567612   -1.5295348984
 21         -5.4050315725   -1.3849624773    4.3921566653   -1.5295348794
 22         -5.4050316330   -1.3849625253    4.3921566143   -1.5295348693
Atom SCF converged after  22 iterations to a total energy of     -5.40503163

Atom SCF Calculation for H  : Z (AE atom) =   1 : Z (PS atom) =   1
Config String: 1s1
Orbitals (num,occ):  1     1.00
Orbitals   (num,l):  1        0
Real-space Grid (nr,dr,rmax): 1377    0.0065406977    9.0000000000
Spherical Bessel Basis (nsws,lmax,cutoff):   37    1  183.0099912382
Confining potential (l,width,scale):  0    3.0000000000  100.0000000000
  1         -0.3605254152   -0.2399954029    0.2820952946   -0.2424203210
  2         -0.4156854077   -0.2398249290    0.2871789324   -0.2464796203
  3         -0.4412552402   -0.2379720642    0.2899127187   -0.2499011370
  4         -0.4517265951   -0.2371980236    0.2908966173   -0.2514141636
  5         -0.4557775773   -0.2369735141    0.2911607883   -0.2519713623
  6         -0.4573363459   -0.2369240355    0.2912108681   -0.2521663171
  7         -0.4579443228   -0.2369187864    0.2912112833   -0.2522344454
  8         -0.4581858602   -0.2369215483    0.2912049187   -0.2522587615
  9         -0.4582834939   -0.2369242589    0.2912002081   -0.2522677042
 10         -0.4583235236   -0.2369258837    0.2911975892   -0.2522710965
 11         -0.4583401154   -0.2369267223    0.2911962825   -0.2522724192
 12         -0.4583470483   -0.2369271266    0.2911956643   -0.2522729467
 13         -0.4583499624   -0.2369273145    0.2911953803   -0.2522731607
 14         -0.4583511926   -0.2369274000    0.2911952521   -0.2522732486
 15         -0.4583517136   -0.2369274385    0.2911951948   -0.2522732850
 16         -0.4583519349   -0.2369274556    0.2911951693   -0.2522733002
 17         -0.4583520290   -0.2369274632    0.2911951581   -0.2522733066
Atom SCF converged after  17 iterations to a total energy of     -0.45835203

Atom SCF Calculation for Li : Z (AE atom) =   3 : Z (PS atom) =   3
Config String: 1s2 2s1 2p0
Orbitals (num,occ):  3     2.00 1.00 0.00
Orbitals   (num,l):  3        0    0    1
Real-space Grid (nr,dr,rmax): 1377    0.0065406977    9.0000000000
Spherical Bessel Basis (nsws,lmax,cutoff):   37    2  183.0099912382
Confining potential (l,width,scale):  0    3.0000000000  100.0000000000
Confining potential (l,width,scale):  1    3.0000000000  100.0000000000
  1         -6.0640888065   -4.6655401716    2.5388576516   -0.9989538799
  2         -6.9627542978   -4.0954079129    2.9808988108   -1.1965571426
  3         -7.2692687601   -3.8889996707    3.2029735703   -1.3193883705
  4         -7.3784440298   -3.8322099748    3.2868571989   -1.3711018151
  5         -7.4170278248   -3.8191968371    3.3144974220   -1.3911175539
  6         -7.4303549880   -3.8172386945    3.3228486489   -1.3986896266
  7         -7.4348052089   -3.8175483495    3.3251259310   -1.4015352495
  8         -7.4362242328   -3.8180607346    3.3256233205   -1.4026016384
  9         -7.4366459715   -3.8184145665    3.3256561549   -1.4029998726
 10         -7.4367560626   -3.8186169740    3.3256001574   -1.4031477379
 11         -7.4367765260   -3.8187239825    3.3255481763   -1.4032021548
 12         -7.4367751741   -3.8187782620    3.3255144587   -1.4032219192
 13         -7.4367707398   -3.8188051288    3.3254952336   -1.4032289600
 14         -7.4367680349   -3.8188156035    3.3254870176   -1.4032309087
 15         -7.4367661982   -3.8188217406    3.3254819951   -1.4032318132
 16         -7.4367650112   -3.8188253257    3.3254789583   -1.4032322224
 17         -7.4367642682   -3.8188274151    3.3254771375   -1.4032324006
 18         -7.4367638134   -3.8188286307    3.3254760529   -1.4032324736
 19         -7.4367635392   -3.8188293370    3.3254754103   -1.4032325004
 20         -7.4367633760   -3.8188297469    3.3254750310   -1.4032325080
 21         -7.4367632796   -3.8188299846    3.3254748079   -1.4032325082
Atom SCF converged after  21 iterations to a total energy of     -7.43676328

Determining parallel strategy ...
... using space-filling curve
... NGWF load balancing: max     16;  min     12;  average     14
... Projector load balancing: max     32;  min     24;  average     28
... done
Calculating Ewald energy ...
              Ewald: real-space energy =   36097.171367
        Ewald: reciprocal-space energy =   36363.691235
         Ewald: (sum_charge)**2 Energy =    2900.619784
         Ewald: (sum_charge**2) Energy =     255.297050
                          Ewald Energy =   69304.945769
======================= Empirical dispersion information =======================
Model : Grimme D2
Dispersion Correction Energy: -0.23666273E+01 Hartree
================================================================================
Basis initialisation ...... NGWF spheres initialised
... Projector spheres initialised
... NGWF tight boxes initialised
... Projector tight boxes initialised
... Tight-boxes gathered
... NGWF basis size (local,global):     284542  45468634
... PAW projector initialisation
... done

============================= Charge Augmentation ==============================
                           Aug box size:   13 x  13 x  13
================================================================================

========================== Sparse matrix information ===========================
                        Overlap matrix filling:  36.10%
                        Density kernel filling: 100.00%
              NGWF-Proj overlap matrix filling:  10.17%
                    Aug Overlap matrix filling:  40.98%
                    Hamiltonian matrix filling:  40.98%
                  NGWF diagonal matrix filling:   0.18%
                             KS matrix filling: 100.00% 
                           KSKS matrix filling: 100.00% 
================================================================================

Sparse matrix initialisation ... done
NGWF initialisation ...... done
============ Calculation of NGWF S^-1 using Hotelling algorithm ================ 
         Iteration  |  Frobenius norm and Maximum abs value    (of I-S*S_n^-1)   
               1       0.47160771E+02     0.99663629E+00
               2       0.46862820E+02     0.99329348E+00
               3       0.46313908E+02     0.98666848E+00
               4       0.45370877E+02     0.97364805E+00
               5       0.43917170E+02     0.94848302E+00
               6       0.41946398E+02     0.90103347E+00
               7       0.39515188E+02     0.81510901E+00
               8       0.36662925E+02     0.78794992E+00
               9       0.33574146E+02     0.76677874E+00
              10       0.30544478E+02     0.74596199E+00
              11       0.27403499E+02     0.72833598E+00
              12       0.23513254E+02     0.70625433E+00
              13       0.18451779E+02     0.67664516E+00
              14       0.12459057E+02     0.62518349E+00
              15       0.69652947E+01     0.53884908E+00
              16       0.37297714E+01     0.40729601E+00
              17       0.23343840E+01     0.30814096E+00
              18       0.13379770E+01     0.18215645E+00
              19       0.53394237E+00     0.77512590E-01
              20       0.11247961E+00     0.19974010E-01
              21       0.68108755E-02     0.13279301E-02
              22       0.29508963E-04     0.58752702E-05
              23       0.60213625E-09     0.11910561E-09
              24       0.65597942E-13     0.88817842E-14
================================================================================
Calculating core density ...
================================= Core Density =================================
               Core den box size:   21 x  21 x  21
================================================================================
 ... done
Up spin density kernel initialisation ...... done
Down spin density kernel initialisation ...... done

Writing density kernel to file "42/592nano.dkn" ... done

>>> Optimising kernel for current NGWFs:

--------------------------- Ensemble-DFT optimisation --------------------------
Running ScaLAPACK on  160 processor(s).
(P)DSYGVX in subroutine dense_eigensolve returned info=    2
 ifail=           0           0
 iclustr=           8          33
 gap=  2.365088909977555E-005  3.581902512657451E-005
(P)DSYGVX in subroutine dense_eigensolve returned info=    2
 ifail=           0           0
 iclustr=           8          33
 gap=  2.365088909977599E-005  3.581902512657517E-005

--------------------------------------------------------------------------------
  Iter                              Commutator    Free_energy(A=E-TS)     DeltaA
#    0                          0.001270500482   -3133.76210712279862  -3.13E+03

Step                       =       0.381966011250
Energy                     =   -3133.724608015103
Entropy (-TS)              =      -0.037499107361
Free energy (A=E-TS)       =   -3133.762107122799
Est. 0K Energy 0.5*(E+A)   =   -3133.743357568951
Residual Non-orthogonality =       0.000000000000
Residual N_electrons       =      -0.000000000335

Spin          Integrated_Ne            Fermi_level     Delta_Fermi_level
   1      1084.999999999270        -0.229454332261             -2.29E-01
   2      1084.999999999270        -0.229454332261             -2.29E-01

                           Spin 1           |                 Spin 2           |
     Orb |    H-eigenvalues     Occupancies |    H-eigenvalues     Occupancies |
       1 |    -1.9002759055    1.0000000000 |    -1.9002759055    1.0000000000 | 
                          ------                             ------
    1081 |    -0.2377557725    0.9322254302 |    -0.2377557725    0.9322254302 | 
    1082 |    -0.2340912555    0.8121779680 |    -0.2340912555    0.8121779680 | 
    1083 |    -0.2328558671    0.7453795945 |    -0.2328558671    0.7453795945 | 
    1084 |    -0.2305196322    0.5833145914 |    -0.2305196322    0.5833145914 | 
    1085 |    -0.2298960967    0.5348181051 |    -0.2298960967    0.5348181051 | 
                 - Gap at zero temperature - |     - Gap at zero temperature -
    1086 |    -0.2284799028    0.4236761194 |    -0.2284799028    0.4236761194 | 
    1087 |    -0.2279055737    0.3801151953 |    -0.2279055737    0.3801151953 | 
    1088 |    -0.2270742939    0.3204821949 |    -0.2270742939    0.3204821949 | 
    1089 |    -0.2237502604    0.1417046251 |    -0.2237502604    0.1417046251 | 
    1090 |    -0.2230925142    0.1182712941 |    -0.2230925142    0.1182712941 | 
                          ------                             ------
    2254 |     0.5557133229    0.0000000000 |     0.5557133229    0.0000000000 | 

                       |  Abs_value |  Threshold | Converged
     Delta_Free_energy |   3.13E+03 |   1.00E-06 |        No
     Delta_Energy      |   3.13E+03 |   1.00E-04 |        No
     Delta_Entropy     |   3.75E-02 |   1.00E-04 |        No
     Commutator        |   1.27E-03 |   1.00E-05 |        No
     Delta_Fermi_level |   2.29E-01 |   1.00E-03 |        No

  Line search of the free energy minimum:
  Step_type        Step             Free_energy   Predicted_free_energy
.   Initial    0.000000    -3133.76210712279862
.    Trial1    0.381966    -3134.10271295258917
.    Trial2    0.618034    -3129.15902175381325
. Quadratic    0.203604    -3134.72141898842301    -3135.22658641285716

--------------------------------------------------------------------------------
  Iter                              Commutator    Free_energy(A=E-TS)     DeltaA
#    1                          0.000799562021   -3134.72141898842301  -9.59E-01

Step                       =       0.203603773294
Energy                     =   -3134.687158703704
Entropy (-TS)              =      -0.034260284466
Free energy (A=E-TS)       =   -3134.721418988423
Est. 0K Energy 0.5*(E+A)   =   -3134.704288846064
Residual Non-orthogonality =       0.000000000000
[...]
 C   445 -- C   467       -0.07      0.00      5.43383
 C    83 -- C    85       -0.08      0.00      5.43386
 C    37 -- C   508       -0.06      0.00      5.43421
 C   470 -- C   547       -0.08      0.00      5.43453
 C    39 -- C   516       -0.07      0.00      5.43493
 C   197 -- C   295       -0.08      0.00      5.43497
 C   262 -- C   292       -0.08      0.00      5.43535
 H   130 -- Li  619       -0.02      0.00      5.43539
 C   247 -- C   355       -0.08      0.00      5.43559
 C    38 -- C   104       -0.08      0.00      5.43574
 C    10 -- C   458       -0.08     -0.00      5.43619
 C   434 -- C   448       -0.08      0.00      5.43673
 C   212 -- C   230       -0.08      0.00      5.43850
 C   249 -- C   353       -0.08      0.00      5.43940
 C   227 -- C   309       -0.08      0.00      5.43982
 C   268 -- C   286       -0.08      0.00      5.43991
 C    52 -- C   338       -0.08     -0.00      5.44011
 C    99 -- C   521       -0.08      0.00      5.44031
 C   368 -- C   394       -0.08     -0.00      5.44050
 C   205 -- C   263       -0.08     -0.00      5.44056
 C    19 -- C   451       -0.08      0.00      5.44058
 C   198 -- C   204       -0.08     -0.00      5.44067
 C   444 -- C   492       -0.08      0.00      5.44142
 C    17 -- C   453       -0.08      0.00      5.44153
 C    51 -- C   521       -0.08     -0.00      5.44155
 C    96 -- C   567       -0.07     -0.00      5.44157
 H   553 -- Li  625       -0.02     -0.00      5.44173
 C   477 -- C   485       -0.08      0.00      5.44215
 C   185 -- C   235       -0.07     -0.00      5.44251
 C   413 -- C   441       -0.07     -0.00      5.44322
 C   256 -- C   290       -0.08      0.00      5.44324
 C   481 -- C   489       -0.08      0.00      5.44326
 C     2 -- C   270       -0.08     -0.00      5.44411
 C    17 -- C   281       -0.08      0.00      5.44451
 C    72 -- C   560       -0.08      0.00      5.44488
 C   201 -- C   239       -0.08     -0.00      5.44572
 C   261 -- C   263       -0.08      0.00      5.44692
 C   258 -- C   288       -0.08      0.00      5.44715
 C   333 -- C   365       -0.08     -0.00      5.44740
 C   261 -- C   427       -0.08     -0.00      5.44784
 C   181 -- C   183       -0.08     -0.00      5.44792
 C   343 -- C   365       -0.08      0.00      5.44882
 C   442 -- C   456       -0.08      0.00      5.44942
 C   231 -- C   323       -0.08     -0.00      5.44971
 C   409 -- C   485       -0.07     -0.00      5.45090
 C   440 -- C   488       -0.08      0.00      5.45179
 C   429 -- C   443       -0.06      0.00      5.45211
 H   146 -- Li  603       -0.03     -0.00      5.45292
 C   253 -- C   413       -0.08      0.00      5.45300
 C    34 -- C    52       -0.08      0.00      5.45439
 C    34 -- C   100       -0.08      0.00      5.45589
 C   466 -- C   538       -0.08     -0.00      5.45656
 H   584 -- Li  630       -0.02      0.00      5.45718
 C   324 -- Li  620       -0.05     -0.00      5.45798
 C    39 -- C   506       -0.07      0.00      5.46003
 C   406 -- C   440       -0.07      0.00      5.46052
 H   589 -- Li  600       -0.02      0.00      5.46640
 C    80 -- C   538       -0.06      0.00      5.46839
 C    55 -- C   525       -0.07     -0.00      5.46951
 C   427 -- C   445       -0.06      0.00      5.47052
 C   338 -- C   380       -0.06      0.00      5.47184
 C   252 -- C   286       -0.06     -0.00      5.47931
 C   231 -- C   241       -0.06      0.00      5.48048
 C   364 -- C   390       -0.06     -0.00      5.48651
 C   188 -- C   286       -0.05      0.00      5.48911
 C    76 -- C   564       -0.06      0.00      5.49201
 C   233 -- C   239       -0.06     -0.00      5.49248
 C   423 -- C   489       -0.06     -0.00      5.49444
 C   193 -- Li  612       -0.06      0.00      5.49815
 C   190 -- C   284       -0.06     -0.00      5.50241
 H   590 -- Li  599       -0.02     -0.00      5.50525
 C   254 -- C   284       -0.06     -0.00      5.50996
 H   474 -- Li  610       -0.03      0.00      5.51030
 H   584 -- Li  623       -0.02      0.00      5.51203
 C   201 -- Li  634       -0.09      0.00      5.51451
 H   398 -- Li  621       -0.02     -0.00      5.51798
 H   561 -- Li  609       -0.02     -0.00      5.52189
 H   138 -- Li  620       -0.02      0.00      5.52790
 C   257 -- Li  611       -0.06      0.00      5.53408
 H   592 -- Li  615       -0.02     -0.00      5.53728
 C   309 -- Li  606       -0.05      0.00      5.56242
 C   380 -- Li  629       -0.06      0.00      5.56707
 H   582 -- Li  607       -0.02     -0.00      5.56729
 Li  610 -- Li  624       -0.12     -0.00      5.57309
 H   141 -- Li  605       -0.02     -0.00      5.57443
 C   169 -- Li  598       -0.05     -0.00      5.58099
 C   527 -- Li  627       -0.06      0.00      5.58568
 Li  601 -- Li  628       -0.12     -0.00      5.58918
 C   215 -- Li  626       -0.06     -0.00      5.59130
 C   128 -- Li  601       -0.05     -0.00      5.59283
 C   198 -- Li  603       -0.05      0.00      5.59767
 H   152 -- Li  607       -0.02      0.00      5.60005
 H   168 -- Li  598       -0.02     -0.00      5.60360
 H   535 -- Li  617       -0.02      0.00      5.60728
 H   131 -- Li  594       -0.02      0.00      5.61179
 H   162 -- Li  612       -0.02      0.00      5.61794
 C   470 -- Li  610       -0.05      0.00      5.62497
 H   156 -- Li  620       -0.02      0.00      5.62689
 H   174 -- Li  611       -0.02      0.00      5.62848
 H   369 -- Li  615       -0.02      0.00      5.63690
 H   135 -- Li  595       -0.02     -0.00      5.63875
 C   181 -- Li  612       -0.05      0.00      5.64279
 H   402 -- Li  613       -0.02      0.00      5.64482
 C   197 -- Li  623       -0.06     -0.00      5.64504
 C   518 -- Li  618       -0.04     -0.00      5.64529
 C   364 -- Li  629       -0.07     -0.00      5.64584
 H   519 -- Li  601       -0.02     -0.00      5.64674
 C   212 -- Li  626       -0.06      0.00      5.64877
 C   238 -- Li  605       -0.06     -0.00      5.65159
 Li  599 -- Li  617       -0.14     -0.00      5.65225
 H   578 -- Li  618       -0.02     -0.00      5.65577
 C   330 -- Li  620       -0.04      0.00      5.65602
 H   544 -- Li  596       -0.02     -0.00      5.65623
 C    87 -- Li  609       -0.06     -0.00      5.65709
 C   482 -- Li  610       -0.05     -0.00      5.66044
 H   129 -- Li  619       -0.02      0.00      5.66409
 H   483 -- Li  633       -0.02      0.00      5.66520
 C   379 -- Li  615       -0.05      0.00      5.66675
=============================================================


============== Orbital energy and occupancy information for spin 1 =============

      Total number of orbitals:    2254
        Occupancy sum (kernel):    1085.000000033
   Occupancy sum (eigenvalues):    1085.000000033
                 HOMO-LUMO gap:       0.000644316 Eh
                 Mid-gap level:      -0.075749488 Eh

                        Orbital | Energy (Eh) | Occupancy
                            1    -1.843347984   1.0000000
                        .......   ...........   .........
                         1077    -0.095841631   0.9952052
                         1078    -0.094660868   0.9930516
                         1079    -0.094381260   0.9924182
                         1080    -0.092149946   0.9848346
                         1081    -0.088278559   0.9500084
                         1082    -0.085380319   0.8844077
                         1083    -0.083251425   0.7959576
                         1084    -0.081722451   0.7068250
                         1085    -0.077400474   0.3815896
                         1086    -0.076071646   0.2868108
                        ....... -- gap at 0K -- .........
                         1087    -0.075427330   0.2481784
                         1088    -0.074146661   0.1809349
                         1089    -0.073818674   0.1653545
                         1090    -0.073480427   0.1508420
                         1091    -0.072633001   0.1199237
                         1092    -0.069569422   0.0491729
                         1093    -0.068481293   0.0352494
                         1094    -0.067011734   0.0225291
                         1095    -0.065619180   0.0145917
                         1096    -0.064267231   0.0096169
                        .......   ...........   .........
                         2254     0.769496751   0.0000000

================================================================================

============== Orbital energy and occupancy information for spin 2 =============

      Total number of orbitals:    2254
        Occupancy sum (kernel):    1084.999999969
   Occupancy sum (eigenvalues):    1084.999999969
                 HOMO-LUMO gap:       0.001328828 Eh
                 Mid-gap level:      -0.076736060 Eh

                        Orbital | Energy (Eh) | Occupancy
                            1    -1.843347984   1.0000000
                        .......   ...........   .........
                         1076    -0.097746395   0.9973914
                         1077    -0.095841632   0.9952052
                         1078    -0.094660868   0.9930516
                         1079    -0.094381260   0.9924182
                         1080    -0.092149946   0.9848346
                         1081    -0.088278559   0.9500083
                         1082    -0.085380319   0.8844077
                         1083    -0.083251425   0.7959576
                         1084    -0.081722451   0.7068249
                         1085    -0.077400474   0.3815896
                        ....... -- gap at 0K -- .........
                         1086    -0.076071646   0.2868108
                         1087    -0.075427330   0.2481784
                         1088    -0.074146661   0.1809349
                         1089    -0.073818674   0.1653545
                         1090    -0.073480427   0.1508420
                         1091    -0.072633001   0.1199237
                         1092    -0.069569422   0.0491729
                         1093    -0.068481293   0.0352494
                         1094    -0.067011734   0.0225291
                         1095    -0.065619180   0.0145917
                        .......   ...........   .........
                         2254     0.769496750   0.0000000

================================================================================

===================== Writing canonical molecular orbitals =====================
    Spin 1
| Orbital  Energy (eV)  Norm     |
| HOMO     -2.07001481  1.000000 | Writing "42/592nano_HOMO_UP.cube" ... done
Writing "42/592nano_HOMO_UP.dx" ... done
| LUMO     -2.05248208  1.000000 | Writing "42/592nano_LUMO_UP.cube" ... done
Writing "42/592nano_LUMO_UP.dx" ... done
================================================================================

===================== Writing canonical molecular orbitals =====================
    Spin 2
| Orbital  Energy (eV)  Norm     |
| HOMO     -2.10617407  1.000000 | Writing "42/592nano_HOMO_DN.cube" ... done
Writing "42/592nano_HOMO_DN.dx" ... done
| LUMO     -2.07001481  1.000000 | Writing "42/592nano_LUMO_DN.cube" ... done
Writing "42/592nano_LUMO_DN.dx" ... done
================================================================================

================== Local Density of States (LDOS) calculation ==================
Writing "42/592nano_UP_LDOS.txt" ...  done
================================================================================

================== Local Density of States (LDOS) calculation ==================
Writing "42/592nano_DN_LDOS.txt" ...  done
================================================================================
 
=============== Density of States (DOS) calculation for UP spin ================
Writing "42/592nano_UP_DOS.txt" ...  done
================================================================================
 
============== Density of States (DOS) calculation for DOWN spin ===============
Writing "42/592nano_DN_DOS.txt" ...  done
================================================================================
 
Writing bands to file "42/592nano.val_bands" ... done
 
================ Projected Density of States (pDOS) calculation ================
 
Constructing AM resolved functions  ...... done
Writing NGWF plot files in formats: CUBE DX ...  done
 
Performing overlap integrals ...  done
 
Computing pDOS weights ...  done
 
All bands spilling parameter =   2.96 %
Occupancy-weighted spilling parameter =   0.85 %
 
 => Outputting data for OptaDOS <=
 
Writing pDOS weights to file "42/592nano.val_pdos_bin" ... done
 
Writing band gradients to file "42/592nano.val_dome_bin" ... done
 
Writing Castep output cell file to "42/592nano-out.cell" ... done
 
 => Computing Gaussian smeared pDOS for UP spin<= 
Writing "42/592nano_UP_PDOS.txt" ...  done
 
 => Computing Gaussian smeared pDOS for DOWN spin<= 
Writing "42/592nano_DN_PDOS.txt" ...  done
 
 => Computing Occupancy-weighted Gaussian smeared pDOS for UP spin<= 
Writing "42/592nano_occ_UP_PDOS.txt" ...  done
  => Band centres for UP spin channel: 
 S band centre of group 1:  -18.924319 eV
 P band centre of group 1:   -8.348743 eV
  Band centres for UP spin channel done. <= 
  => Integrated number of electrons in each AM band for UP spin channel: 
 S num electrons of group 1:  306.809938
 P num electrons of group 1:  768.954187
  Integrated number of electrons for UP spin channel done. <= 
 
 => Computing Occupancy-weighted Gaussian smeared pDOS for DOWN spin<= 
Writing "42/592nano_occ_DN_PDOS.txt" ...  done
  => Band centres for DOWN spin channel: 
 S band centre of group 1:  -18.924319 eV
 P band centre of group 1:   -8.348743 eV
  Band centres for DOWN spin channel done. <=
  => Integrated number of electrons in each AM band for DOWN spin channel: 
 S num electrons of group 1:  306.809938
 P num electrons of group 1:  768.954186
  Integrated number of electrons for DOWN spin channel done. <=
================================================================================

------------------------------ TIMING INFORMATION ------------------------------
AVERAGE TIME:   16445.724s on    160 node(s)                                    
TOTAL TIME:     16445.735s on    160 node(s)                                    
================= AVERAGE TIMINGS FROM ALL NODES (CUMULATIVE) ==================
|| TAG                                    #calls    cpu time   %total  Gflops ||
|| work_imbalance                       :     1        0.00s   0.000%  ------ ||
|| paw_tcore_density                    :     1        0.01s   0.000%  ------ ||
|| sparse_set_to_garbage                :   237        0.01s   0.000%  ------ ||
|| paw_sphere_density_on_grid           :     1        0.01s   0.000%  ------ ||
|| basis_extract_function_from_box      :   394        0.02s   0.000%  ------ ||
|| paw_dij_hartree                      :   951        0.03s   0.000%  ------ ||
|| ngwfs_initialise_from_radial         :     2        0.04s   0.000%  ------ ||
|| ewald_calculate_energy               :     1        0.15s   0.001%  ------ ||
|| density_init_guess_real              :     1        0.24s   0.001%  ------ ||
|| paw_tcore_hartree_on_grid            :     1        0.39s   0.002%  ------ ||
|| paw_dataset_init                     :     3        0.42s   0.003%  ------ ||
|| pseudo_make_structure_factor         :     1        0.51s   0.003%  ------ ||
|| sparse_init                          :     1        1.04s   0.006%  ------ ||
|| dense_normal_eigensolve              :     1        1.19s   0.007%  ------ ||
|| restart_kernel_write                 :    15        1.21s   0.007%  ------ ||
|| paw_species_calc_proj_prec_mat       :     1        2.20s   0.013%  ------ ||
|| sparse_embed_hotelling_invert_embed  :    27        5.35s   0.033%  ------ ||
|| sw_init                              :     1        7.55s   0.046%  ------ ||
|| fourier_apply_box_pair               :   986       11.34s   0.069%  2.296k ||
|| ngwf_gradient_coeffs                 :    14       12.22s   0.074%  ------ ||
|| augmentation_screen_dij              :   712       14.37s   0.087%  ------ ||
|| projectors_init_fftbox_recip         :    57       21.73s   0.132%  ------ ||
|| integrals_kinetic                    :    27       36.33s   0.221%  ------ ||
|| basis_copy_function_to_box           : 27231       36.72s   0.223%  ------ ||
|| hartree_on_grid                      :   707       37.59s   0.229%  ------ ||
|| projectors_func_ovlp_box             :    28       40.27s   0.245%  ------ ||
|| paw_dij_xc                           :   951       40.95s   0.249%  ------ ||
|| function_ops_brappd_ketppd           :    56       41.76s   0.254%  ------ ||
|| hamiltonian_energy_components        :     3       71.73s   0.436%  ------ ||
|| sparse_trace                         : 17752       79.60s   0.484%  ------ ||
|| eigenstates_pdos                     :     1      111.22s   0.676%  ------ ||
|| augmentation_density_on_grid         :   707      119.57s   0.727%  ------ ||
|| aug_nonlocal_mat                     :   937      124.31s   0.756%  ------ ||
|| fourier_apply_cell_forward           :  6355      130.71s   0.795% 169.227 ||
|| fourier_apply_cell_backward          :  6356      139.00s   0.845% 159.154 ||
|| restart_ngwfs_tightbox_output        :    13      155.95s   0.948%  ------ ||
|| basis_dot_function_with_box          : 5.780M     160.28s   0.975%  ------ ||
|| eigenstates_calculate                :     1      223.67s   1.360%  ------ ||
|| xc_energy_potential                  :   706      272.60s   1.658%  ------ ||
|| sparse_product                       : 15319      406.74s   2.473%  ------ ||
|| dense_eigensolve                     :  1352      522.58s   3.178%  ------ ||
|| integrals_locpot_mat_els_batch       :   475      566.53s   3.445%  ------ ||
|| basis_add_function_to_box            : 17.49M     571.58s   3.476%  ------ ||
|| projectors_gradient_batch            :    14      622.96s   3.788%  ------ ||
|| cell_grid_deposit_box_real           : 50993      650.16s   3.953%  ------ ||
|| cell_grid_extract_box_real           : 15188      659.99s   4.013%  ------ ||
|| projectors_grad_precond_batch        :    14      863.29s   5.249%  ------ ||
|| density_fftbox_deposit_to_cell       : 22624     1171.24s   7.122%  ------ ||
|| density_batch_row_sums               :   707     1531.85s   9.315%  ------ ||
|| properties_calculate                 :     1     1554.82s   9.454%  ------ ||
|| ngwf_gradient_build_batch            :    14     1646.53s  10.012%  ------ ||
|| potential_apply_to_ngwf_batch        :   475     1710.94s  10.404%  ------ ||
|| edft_diag_ngwf_ham                   :  1350     1754.49s  10.668%  ------ ||
|| ngwf_gradient_batch                  :    14     1798.75s  10.937%  ------ ||
|| ngwf_gradient_lnv                    :    14     1820.58s  11.070%  ------ ||
|| fourier_apply_box                    : 86322     1886.77s  11.473%  3.976k ||
|| density_fftbox_interpolate_multiply  : 22624     2174.86s  13.224%  ------ ||
|| integrals_locpot_dbl_grid            :   475     2294.46s  13.952%  ------ ||
|| edft_apply_smearing_operator         :   675     2891.76s  17.584%  ------ ||
|| density_batch_interp_deposit         :   707     3931.67s  23.907%  ------ ||
|| density_on_dbl_grid                  :   707     5580.10s  33.930%  ------ ||
|| hamiltonian_lhxc_calculate           :   702     6181.83s  37.589%  ------ ||
|| edft_calculate                       :    14    11606.98s  70.577%  ------ ||
|| ngwf_cg_optimise                     :     1    14870.41s  90.421%  ------ ||
|| total_time                           :     1    16445.72s 100.000%  ------ ||
================================================================================
Overhead of generating timer report: 
- 0 ms averaging over threads,
- 25 ms ensuring consistency across MPI ranks,
- 0 ms printing in order.

Job completed: 13-10-2020 08:42 (+0100)

