 +---------------------------------------------------------------+
 |                                                               |
 |        ####### #     # ####### ####### ####### ######         |
 |        #     # ##    # #          #    #       #     #        |
 |        #     # # #   # #          #    #       #     #        |
 |        #     # #  #  # #####      #    #####   ######         |
 |        #     # #   # # #          #    #       #              |
 |        #     # #    ## #          #    #       #              |
 |        ####### #     # #######    #    ####### #              |
 |                                                               |
 |        Linear-Scaling Ab Initio Total Energy Program          |
 |                                                               |
 |          Release for academic collaborators of ODG            |
 |                                             Version 5.3.2.12  |
 |                                                               |
 +---------------------------------------------------------------+
 |                                                               |
 |  Authors:                                                     |
 |  Jacek Dziedzic, Peter D. Haynes, Nicholas D. M. Hine,        |
 |  Arash. A. Mostofi, Mike C. Payne and Chris-Kriton Skylaris   |
 |                                                               |
 |  Contributors:                                                |
 |  J. Aarons, L. Andrinopoulos, P. W. Avraam, R. A. Bell,       |
 |  A. Bhandari, G. A. Bramley, R. J. Charlton, S. J. Clark,     |
 |  R. J. Clements, G. C. Constantinescu, F. Corsetti,           |
 |  N. Corsini, O. Dieguez, S. M. M. Dubois, K. K. B. Duff,      |
 |  J. M. Escartin, A. Greco, H. Helal, Q. O. Hill, L. P. Lee,   |
 |  J.-H. Li, E. B. Linscott, G. Moynihan, D. D. O`Regan,        |
 |  O. K. Okan, M. J. S. Phipps, C. J. Pickard,                  |
 |  J. C. A. Prentice, M. I. J. Probert, L. E. Ratcliff,         |
 |  M. Robinson, A. Ruiz Serrano, J. S. Spencer, E. W. Tait,     |
 |  G. Teobaldi, D. Turban, V. Vitale, K. A. Wilkinson,          |
 |  C. Weber, J. C. Womack, N. Yeung and T. J. Zuehlsdorff       |
 |                                                               |
 |                                   Copyright (c) 2004-2020     |
 |                                                               |
 |  Please cite:                                                 |
 |  "Introducing ONETEP: Linear-scaling density functional       |
 |   simulations on parallel computers".                         |
 |   C.-K. Skylaris, P. D. Haynes, A. A. Mostofi, M. C. Payne.   |
 |   J. Chem. Phys. 122 084119 (2005).                           |
 |                                                               |
 |          in all publications arising from your use of ONETEP. |
 |                                                               |
 +---------------------------------------------------------------+
 |                                                               |
 |   ONETEP is based on developments described in the following  |
 |   publications:                                               |
 |                                                               |
 |  "Nonorthogonal generalized Wannier function pseudopotential  |
 |   plane-wave method".                                         |
 |   C.-K. Skylaris, A. A. Mostofi, P. D. Haynes, O. Dieguez,    |
 |   M. C. Payne.                                                |
 |   Phys. Rev. B 66 035119 (2002).                              |
 |                                                               |
 |  "Preconditioned iterative minimization for linear-scaling    |
 |   electronic structure calculations".                         |
 |   A. A. Mostofi, P. D. Haynes, C.-K. Skylaris, M. C. Payne.   |
 |   J. Chem. Phys. 119(17), pp.8842-8848 (2003).                |
 |                                                               |
 |  "Total-energy calculations on a real space grid with         |
 |   localized functions and a plane-wave basis".                |
 |   A. A. Mostofi, C.-K. Skylaris, P. D. Haynes, M. C. Payne.   |
 |   Comput. Phys. Commun. 147, pp.788-802 (2002).               |
 |                                                               |
 |  "Accurate kinetic energy evaluation in electronic structure  |
 |   calculations with localized functions on real space grids"  |
 |   C.-K. Skylaris, A. A. Mostofi, P. D. Haynes, C. J. Pickard, |
 |   M. C. Payne.                                                |
 |   Comput. Phys. Commun. 140, pp.315-322 (2001).               |
 |                                                               |
 |  "Accurate ionic forces and geometry optimization in linear-  |
 |   scaling density-functional theory with local orbitals"      |
 |   N. D. M. Hine, M. Robinson, P. D. Haynes, C.-K. Skylaris,   |
 |   M. C. Payne, and A. A. Mostofi.                             |
 |   Phys. Rev. B 83 195102 (2011).                              |
 |                                                               |
 +---------------------------------------------------------------+

Job started: 03-08-2020 00:11 (+0100)
 
Reading parameters from file "50/592nano.dat" ...... done

If your calculation crashes here, before "Checking processes and threads..."
is displayed, then your stack size is insufficient.
If so, use "ulimit -s unlimited" at runtime.
You can disable this check with "check_stack_size F".

Checking processes and threads...
   Determining the default number of threads...
      No default threads set at compilation time: defaulting to 1.
      OpenMP library call suggests 4 threads.
      Hybrid MPI-OpenMP compilation detected.
      Number of MPI processes > 1.
      OMP_NUM_THREADS environment variable present and
      its value matches the one obtained from the OpenMP library call.
      Using this value as default.
      Default threads: 4
      Default applies to threads_max and threads_num_fftboxes.
      Settings in the input file override this default.
   ... done

   Running with 160 MPI processes.
   There are 10 MPI processes running on the same node as the root process.
   Each MPI process is using: 
               1 threads for simulation cell FFTs.
               1 threads for parallel FFT box operations.
               4 threads for loops over batched FFT box operations.
               4 threads in other parallel regions.
... done

Basic input checks...
Resetting ngwf_cg_rotate to TRUE for EDFT calculations
... done

Reading geometry and species blocks from file "50/592nano.dat" ...    
  Number of PPD points along a3 set to 1.  This is 
  the default value, it may have been provided also in the input file.
... done
 Writing xyz coordinates to file "50/592nano.xyz" ... done


--------------------------------------------------------------------------------
---------------------------------- INPUT FILE ----------------------------------
--------------------------------------------------------------------------------

task : singlepoint                                                              
ddec_classical_hirshfeld T                                                      
do_properties : true                                                            
dx_format T                                                                     
edft T                                                                          
output_detail VERBOSE                                                           
write_xyz T                                                                     
dispersion 4                                                                    
xc_functional PBE                                                               
cutoff_energy 830 eV                                                            
paw T                                                                           
geom_disp_tol 0.015 bohr                                                        
geom_energy_tol 1.5E-6 hartree                                                  
geom_force_tol 0.01 "ha/bohr"                                                   
%BLOCK SPECIES_LDOS_GROUPS                                                      
C                                                                               
H                                                                               
Li                                                                              
%ENDBLOCK SPECIES_LDOS_GROUPS                                                   
EDFT_MAXIT 30                                                                   
pdos_max_l = 2                                                                  
dos_smear  0.1 eV                                                               
popn_calculate T                                                                
PDOS_PSEUDOATOMIC T                                                             
PDOS_REDUCE_SWS F                                                               
PDOS_CONSTRUCT_BASIS F                                                          
PDOS_LOWDIN T                                                                   
PDOS_ORTH_ATOM_BLOCKS F                                                         
PDOS_LCAO_OPTIMIZE F                                                            
pdos_optados_output T                                                           
homo_plot 0                                                                     
lumo_plot 0                                                                     
homo_dens_plot -1                                                               
lumo_dens_plot -1                                                               
%BLOCK SPECIES                                                                  
C C 6 4 9.0                                                                     
H H 1 1 9.0                                                                     
Li Li 3 5 9.0                                                                   
%ENDBLOCK SPECIES                                                               
%BLOCK SPECIES_POT                                                              
C "~/pp/paw/c_pbe_abinit.paw"                                                   
H "~/pp/paw/h_pbe_abinit.paw"                                                   
Li "~/pp/paw/li_pbe_abinit.paw"                                                 
%ENDBLOCK SPECIES_POT                                                           
%BLOCK SPECIES_ATOMIC_SET                                                       
C "SOLVE conf=2s2 2p2"                                                          
H "SOLVE conf=1s1"                                                              
Li "SOLVE conf=1s2 2s1 2p0"                                                     
%ENDBLOCK SPECIES_ATOMIC_SET                                                    
%BLOCK LATTICE_CART                                                             
94.486315650000      0.000000000000       0.000000000000                        
0.000000000000       94.486315650000      0.000000000000                        
0.000000000000       0.000000000000       94.486315650000                       
%ENDBLOCK LATTICE_CART                                                          
%BLOCK POSITIONS_ABS                                                            
C 45.508581 50.734779 30.217656                                                 
C 45.453324 50.537274 36.196608                                                 
C 46.863988 53.074979 30.209088                                                 
C 48.161565 50.531638 36.205311                                                 
C 49.569976 48.389305 30.195234                                                 
C 49.518069 48.193364 36.206191                                                 
C 50.930861 50.736653 30.186309                                                 
C 52.230361 48.189164 36.271624                                                 
C 45.512545 55.410942 30.174166                                                 
C 45.445730 55.231552 36.237073                                                 
C 46.862670 57.752293 30.112071                                                 
C 48.163920 55.232427 36.229189                                                 
C 49.573608 53.076171 30.188990                                                 
C 49.519369 52.867481 36.193878                                                 
C 50.921234 55.413878 30.111258                                                 
C 52.229177 52.865613 36.285492                                                 
C 45.386450 50.566615 43.572704                                                 
C 45.471568 50.462860 49.529345                                                 
C 46.740598 52.910181 43.554616                                                 
C 48.170729 50.482910 49.558975                                                 
C 49.435821 48.203575 43.606534                                                 
C 49.535178 48.150237 49.670129                                                 
C 50.805516 50.548329 43.554319                                                 
C 52.233544 48.170292 49.788747                                                 
C 45.393936 55.271287 43.493075                                                 
C 45.430196 55.148740 49.298737                                                 
C 46.745371 57.601422 43.406138                                                 
C 48.141169 55.175670 49.429318                                                 
C 49.456815 52.896507 43.566756                                                 
C 49.502336 52.838911 49.543201                                                 
C 50.811987 55.239456 43.582717                                                 
C 52.199865 52.857543 49.684751                                                 
C 57.680402 48.379454 29.846377                                                 
C 57.595133 48.174636 36.743290                                                 
C 59.044300 50.716638 29.871099                                                 
C 60.311098 48.172705 37.047900                                                 
C 57.554617 48.179173 43.243409                                                 
C 57.595144 48.192727 50.211109                                                 
C 58.913348 50.521611 43.105007                                                 
C 60.321915 48.207430 50.418476                                                 
C 53.628621 50.735128 30.122167                                                 
C 53.578621 50.524863 36.381453                                                 
C 54.980417 53.078566 30.062491                                                 
C 56.270087 50.523992 36.629494                                                 
C 53.502291 50.533484 43.453650                                                 
C 53.561469 50.513056 49.806438                                                 
C 54.864646 52.876798 43.318967                                                 
C 56.256262 50.526918 50.034979                                                 
C 57.654985 43.716453 29.509096                                                 
C 57.629706 43.497898 36.549579                                                 
C 59.018884 46.041297 29.574438                                                 
C 60.351983 43.514563 36.786417                                                 
C 57.514757 43.481851 43.235666                                                 
C 57.632039 43.511529 50.387609                                                 
C 58.889509 45.809232 43.183527                                                 
C 60.343183 43.529415 50.560927                                                 
C 53.629154 46.055512 30.006929                                                 
C 53.582789 45.824257 36.305123                                                 
C 54.976784 48.382747 30.022377                                                 
C 56.278761 45.839999 36.525099                                                 
C 53.498703 45.849020 43.526554                                                 
C 53.586004 45.827396 49.959508                                                 
C 54.851243 48.183697 43.423710                                                 
C 56.270402 45.846858 50.164988                                                 
C 57.666583 57.768221 29.762233                                                 
C 57.617914 57.549728 36.806148                                                 
C 59.035051 60.160334 29.564192                                                 
C 60.336761 57.528017 37.021921                                                 
C 57.560894 57.564247 43.015397                                                 
C 57.562548 57.566530 50.106965                                                 
C 58.903560 59.926995 42.794189                                                 
C 60.309938 57.555646 50.348669                                                 
C 45.490149 64.768650 29.968220                                                 
C 45.462145 64.582924 36.557316                                                 
C 46.870542 67.135894 29.928890                                                 
C 48.142115 64.585437 36.808838                                                 
C 49.535739 62.416757 29.783657                                                 
C 49.504763 62.240869 36.703807                                                 
C 50.886948 64.790588 29.560833                                                 
C 52.207303 62.255281 36.749649                                                 
C 45.426709 64.613360 43.170583                                                 
C 45.325900 64.476170 50.166960                                                 
C 46.812115 66.971928 42.993346                                                 
C 48.016627 64.523781 50.139682                                                 
C 49.450490 62.240402 43.029075                                                 
C 49.397372 62.207854 49.885788                                                 
C 50.835652 64.593791 42.785030                                                 
C 52.106524 62.247289 49.956907                                                 
C 53.593950 60.084587 29.723673                                                 
C 53.567903 59.914243 36.625921                                                 
C 54.944740 62.451781 29.520958                                                 
C 56.280719 59.899688 36.769822                                                 
C 53.506911 59.892262 43.010223                                                 
C 53.487047 59.910836 49.938005                                                 
C 54.875532 62.247918 42.752697                                                 
C 56.181663 59.924105 50.126050                                                 
C 57.698325 53.074273 29.935749                                                 
C 57.594018 52.862632 36.806593                                                 
C 59.045371 55.411331 29.813696                                                 
C 60.311853 52.863107 37.123342                                                 
C 57.563181 52.874332 43.148251                                                 
C 57.578105 52.878079 50.137752                                                 
C 58.909077 55.230762 43.051919                                                 
C 60.301054 52.879701 50.338940                                                 
C 45.497142 60.091639 30.050032                                                 
C 45.468818 59.907414 36.436535                                                 
C 46.842759 62.422564 29.939765                                                 
C 48.160368 59.912931 36.491580                                                 
C 49.556310 57.752157 30.055788                                                 
C 49.513694 57.574912 36.340479                                                 
C 50.901847 60.094768 29.860545                                                 
C 52.232723 57.577133 36.406515                                                 
C 45.391288 59.941048 43.318863                                                 
C 45.386478 59.848456 49.532037                                                 
C 46.762026 62.270256 43.189391                                                 
C 48.072525 59.864320 49.609372                                                 
C 49.453658 57.588053 43.411127                                                 
C 49.462419 57.527738 49.541664                                                 
C 50.815930 59.917109 43.148553                                                 
C 52.157957 57.544830 49.719968                                                 
C 53.629464 55.410525 30.040018                                                 
C 53.586310 55.224806 36.397314                                                 
C 54.970983 57.763930 29.860725                                                 
C 56.273226 55.208051 36.657697                                                 
C 53.530778 55.223531 43.381393                                                 
C 53.527139 55.214374 49.772391                                                 
C 54.867224 57.569989 43.164337                                                 
C 56.234750 55.219012 49.988759                                                 
H 27.238076 41.383950 29.020861                                                 
H 28.213589 39.433181 37.046737                                                 
H 27.085882 41.284734 42.826664                                                 
H 28.386922 39.164038 50.759611                                                 
H 41.820303 30.271225 29.498338                                                 
C 42.846636 32.056613 29.533378                                                 
H 44.409380 30.058127 36.700926                                                 
H 41.609083 30.099716 42.937072                                                 
C 42.636137 31.889914 43.013165                                                 
H 44.597170 29.975193 49.716308                                                 
H 29.588967 37.258468 29.396842                                                 
C 30.630885 39.044803 29.447466                                                 
H 32.300296 37.062995 36.634907                                                 
H 33.709817 34.870461 29.577106                                                 
C 34.722412 36.672377 29.600107                                                 
H 29.365545 37.248354 43.604583                                                 
C 30.425981 39.018171 43.459615                                                 
H 32.487592 36.885138 51.017879                                                 
H 33.453927 34.809056 44.216898                                                 
C 34.486616 36.578621 43.961666                                                 
H 37.775871 32.578631 29.377057                                                 
C 38.785529 34.379612 29.400733                                                 
H 40.377751 32.402627 36.981447                                                 
H 37.552777 32.408348 43.419689                                                 
C 38.555868 34.213128 43.347514                                                 
H 40.525458 32.289575 50.408310                                                 
H 46.500640 30.277990 29.844037                                                 
H 46.300209 30.103981 43.050603                                                 
H 25.813397 48.177993 36.173651                                                 
C 27.882162 48.191902 36.219565                                                 
H 25.861620 47.883626 50.076418                                                 
C 27.932405 47.914281 50.065304                                                 
H 25.847652 43.490086 36.603754                                                 
H 27.272005 46.141102 29.009878                                                 
C 27.915209 43.496515 36.600310                                                 
H 25.965292 43.166247 50.252167                                                 
H 27.115844 45.987437 42.626627                                                 
C 28.036784 43.202785 50.284772                                                 
H 25.841416 57.657560 36.296789                                                 
H 27.308167 60.070349 28.777600                                                 
C 27.912067 57.635106 36.327969                                                 
H 25.761031 57.277745 49.843365                                                 
H 27.156559 59.911503 44.125820                                                 
C 27.838065 57.287333 49.913702                                                 
H 25.790130 52.911925 36.246364                                                 
H 27.317447 55.374122 28.799903                                                 
C 27.859375 52.906443 36.262053                                                 
H 25.799697 52.569317 49.995527                                                 
H 27.139939 55.219868 43.853268                                                 
C 27.874888 52.587044 49.997188                                                 
C 29.289845 41.391676 29.218507                                                 
C 29.248984 41.215668 36.879816                                                 
C 30.586928 43.751509 29.239178                                                 
C 31.913923 41.157593 36.868897                                                 
C 33.309079 38.953124 29.570062                                                 
C 33.331084 38.862540 36.797734                                                 
C 34.693744 41.362449 29.636242                                                 
C 36.006279 38.841645 36.859831                                                 
C 29.331893 46.118510 29.153814                                                 
C 29.181431 45.843381 36.462698                                                 
C 30.668281 48.421235 29.048463                                                 
C 31.923897 45.843942 36.541943                                                 
C 33.338612 43.728208 29.543527                                                 
C 33.283758 43.515289 36.707375                                                 
C 34.696887 46.065048 29.616354                                                 
C 35.981491 43.523445 36.660550                                                 
C 29.139067 41.289883 43.005720                                                 
C 29.395105 40.963031 50.607245                                                 
C 30.443101 43.628451 42.856468                                                 
C 32.079333 40.944292 50.671108                                                 
C 33.089384 38.907199 43.606659                                                 
C 33.498219 38.684669 50.878821                                                 
C 34.483256 41.253974 43.370156                                                 
C 36.152094 38.686602 50.881044                                                 
C 29.176903 45.977562 42.731530                                                 
C 29.265303 45.587344 50.163545                                                 
C 30.487579 48.285138 42.794958                                                 
C 32.004262 45.613475 50.130058                                                 
C 33.167315 43.591828 43.090898                                                 
C 33.396552 43.317187 50.348199                                                 
C 34.542159 45.919499 43.110380                                                 
C 36.101386 43.356581 50.255364                                                 
C 41.455890 39.046310 29.659837                                                 
C 41.418906 38.842261 36.800771                                                 
C 42.801228 41.382604 29.910640                                                 
C 44.124589 38.829609 36.681903                                                 
C 41.263624 38.871169 43.315355                                                 
C 41.544225 38.744464 50.300407                                                 
C 42.626358 41.198351 43.436353                                                 
C 44.218589 38.756816 50.009221                                                 
C 37.398438 41.363717 29.709727                                                 
C 37.361719 41.200894 36.771077                                                 
C 38.746099 43.718051 29.884983                                                 
C 40.049801 41.168309 36.687788                                                 
C 37.204165 41.230193 43.446385                                                 
C 37.487673 41.059419 50.503114                                                 
C 38.569070 43.560787 43.438217                                                 
C 40.168363 41.062718 50.238563                                                 
C 41.452422 34.348323 29.415897                                                 
C 41.418066 34.189336 36.935063                                                 
C 42.815581 36.706794 29.482294                                                 
C 44.095319 34.125513 36.769102                                                 
C 41.245670 34.171696 43.090789                                                 
C 41.554055 34.081264 50.336856                                                 
C 42.618130 36.522167 43.162455                                                 
C 44.212957 34.043414 49.976967                                                 
C 37.404007 36.640950 29.469938                                                 
C 37.379360 36.537705 36.801955                                                 
C 38.770037 39.024091 29.595570                                                 
C 40.065984 36.464943 36.915040                                                 
C 37.188039 36.482459 43.599530                                                 
C 37.542661 36.410248 50.732916                                                 
C 38.558121 38.866844 43.456418                                                 
C 40.206897 36.362977 50.615585                                                 
C 41.453272 48.394138 30.115164                                                 
C 41.373900 48.195317 36.301733                                                 
C 42.806580 50.735577 30.170291                                                 
C 44.099425 48.195681 36.243611                                                 
C 41.295165 48.235961 43.540018                                                 
C 41.435085 48.078501 49.652477                                                 
C 42.663215 50.572985 43.533609                                                 
C 44.135559 48.111636 49.612007                                                 
C 29.378678 55.393144 28.946073                                                 
C 29.162530 55.297119 36.326975                                                 
C 30.661880 57.743336 28.993251                                                 
C 31.932424 55.280121 36.376004                                                 
C 33.406657 53.085270 29.314155                                                 
C 33.271369 52.921368 36.351312                                                 
C 34.735550 55.421787 29.478730                                                 
C 35.986086 52.910480 36.395672                                                 
C 29.203262 55.230245 43.722857                                                 
C 29.138295 54.920672 49.889436                                                 
C 30.489220 57.569675 43.750493                                                 
C 31.884515 54.972048 49.837646                                                 
C 33.228178 52.923194 43.406050                                                 
C 33.261682 52.647674 49.822345                                                 
C 34.572062 55.257618 43.411224                                                 
C 35.966995 52.682132 49.686787                                                 
C 37.414247 50.745189 29.850451                                                 
C 37.327247 50.558503 36.392936                                                 
C 38.757078 53.079324 29.945500                                                 
C 40.012110 50.552194 36.333504                                                 
C 37.266131 50.587453 43.307834                                                 
C 37.353593 50.367049 49.681732                                                 
C 38.617537 52.923469 43.363299                                                 
C 40.057473 50.405197 49.596480                                                 
C 41.444302 43.720085 29.998497                                                 
C 41.395920 43.500555 36.475009                                                 
C 42.795850 46.055463 30.125881                                                 
C 44.104575 43.495117 36.386794                                                 
C 41.276599 43.546793 43.542449                                                 
C 41.487698 43.406794 49.923423                                                 
C 42.639476 45.874781 43.689628                                                 
C 44.182252 43.429545 49.797622                                                 
C 29.386710 50.752783 29.077902                                                 
C 29.147106 50.538452 36.267959                                                 
C 30.687497 53.093762 28.956763                                                 
C 31.914733 50.545490 36.315558                                                 
C 33.389025 48.409779 29.377785                                                 
C 33.271679 48.196832 36.446183                                                 
C 34.724620 50.748269 29.531749                                                 
C 35.975369 48.197922 36.452310                                                 
C 29.196236 50.602332 43.189037                                                 
C 29.188964 50.278545 50.058885                                                 
C 30.493155 52.918771 43.593427                                                 
C 31.942304 50.310794 49.960671                                                 
C 33.219363 48.261115 43.012911                                                 
C 33.325014 47.986668 49.964925                                                 
C 34.559955 50.591917 43.223226                                                 
C 36.028071 48.015976 49.836638                                                 
C 37.402867 46.055043 29.862859                                                 
C 37.312665 45.868706 36.510017                                                 
C 38.759791 48.398529 29.961323                                                 
C 40.030195 45.859204 36.409445                                                 
C 37.235583 45.901025 43.328092                                                 
C 37.405961 45.700444 49.938255                                                 
C 38.599990 48.240427 43.378125                                                 
C 40.110345 45.729330 49.824654                                                 
C 45.461032 32.059347 29.723888                                                 
C 45.473560 31.832193 36.582778                                                 
C 46.843985 34.351456 29.793633                                                 
C 48.052566 31.815762 36.273081                                                 
H 49.069955 30.022820 36.147220                                                 
H 50.543084 32.595993 29.915103                                                 
C 45.499772 36.701680 29.738965                                                 
C 45.454759 36.474672 36.602915                                                 
C 46.828984 39.041850 29.935730                                                 
C 48.123728 36.456256 36.276304                                                 
C 49.508345 34.387885 29.857959                                                 
C 49.462027 34.090620 36.141059                                                 
C 50.859864 36.647182 29.824934                                                 
C 52.158713 34.114958 36.128256                                                 
C 45.249022 31.888802 43.083225                                                 
C 45.624256 31.765841 49.770658                                                 
C 46.639875 34.167213 43.249920                                                 
C 48.274224 31.774867 49.693592                                                 
H 49.310595 29.993198 49.594943                                                 
H 50.346039 32.395714 43.420849                                                 
C 45.306644 36.519634 43.262677                                                 
C 45.581072 36.417172 49.910151                                                 
C 46.661804 38.857222 43.406687                                                 
C 48.276361 36.436465 49.849318                                                 
C 49.317709 34.197587 43.408277                                                 
C 49.677998 34.074889 49.832944                                                 
C 50.688221 36.462508 43.551174                                                 
C 52.327776 34.132968 50.099304                                                 
H 53.152294 32.306975 36.079966                                                 
H 53.370699 32.349711 50.094464                                                 
C 57.619289 39.053456 29.328837                                                 
C 57.684506 38.769181 36.374927                                                 
C 59.009938 41.377381 29.164341                                                 
C 60.348936 38.864697 36.555315                                                 
C 57.456893 38.811702 43.209291                                                 
C 57.684378 38.810911 50.612030                                                 
C 58.858589 41.112590 43.093419                                                 
C 60.358244 38.896926 50.646255                                                 
C 45.504604 46.058297 30.180423                                                 
C 45.452682 45.840134 36.269761                                                 
C 46.861794 48.393634 30.217234                                                 
C 48.171304 45.828752 36.226341                                                 
C 49.547977 43.723078 30.105795                                                 
C 49.515929 43.480255 36.230181                                                 
C 50.914035 46.056592 30.125693                                                 
C 52.236750 43.474279 36.224666                                                 
C 45.366085 45.879219 43.632863                                                 
C 45.506242 45.780771 49.680012                                                 
C 46.724895 48.212012 43.598091                                                 
C 48.206505 45.797429 49.702401                                                 
C 49.399026 43.514379 43.572174                                                 
C 49.571715 43.467912 49.816909                                                 
C 50.775513 45.863270 43.676258                                                 
C 52.258962 43.481742 49.972084                                                 
C 53.592528 41.391398 29.746920                                                 
C 53.581983 41.129402 36.224383                                                 
C 54.965210 43.722141 29.774324                                                 
C 56.298915 41.150975 36.329192                                                 
C 53.441402 41.168841 43.438990                                                 
C 53.610468 41.152202 50.215223                                                 
C 54.821677 43.497872 43.412554                                                 
C 56.314350 41.169818 50.429827                                                 
H 57.285831 34.628626 36.637386                                                 
H 58.619066 37.268317 28.997600                                                 
H 57.380432 34.720567 50.562113                                                 
H 58.470922 37.013615 43.080821                                                 
C 45.488513 41.381726 30.010609                                                 
C 45.474606 41.152857 36.458199                                                 
C 46.851816 43.720097 30.134414                                                 
C 48.154222 41.138013 36.319910                                                 
C 49.519508 39.031947 29.971130                                                 
C 49.498938 38.793442 36.248825                                                 
C 50.892520 41.374885 29.988888                                                 
C 52.207243 38.777335 36.209846                                                 
C 45.322366 41.196246 43.457501                                                 
C 45.552830 41.096236 49.844144                                                 
C 46.702213 43.528498 43.560504                                                 
C 48.245509 41.118298 49.835712                                                 
C 49.356348 38.850723 43.486147                                                 
C 49.607804 38.790091 49.936206                                                 
C 50.740116 41.166320 43.497676                                                 
C 52.285181 38.798533 50.179799                                                 
C 53.545119 36.722743 29.428364                                                 
C 53.561138 36.371350 36.220605                                                 
C 54.944208 39.031339 29.441660                                                 
C 56.271128 36.416343 36.458820                                                 
C 53.383919 36.510492 43.307120                                                 
C 53.661817 36.417701 50.338722                                                 
C 54.785017 38.801507 43.339636                                                 
C 56.333194 36.498088 50.548949                                                 
H 61.391599 37.080392 36.564516                                                 
H 62.689739 39.633781 28.921316                                                 
H 61.408260 37.125482 50.669174                                                 
H 62.546614 39.379636 42.795877                                                 
H 28.227667 61.741656 36.394774                                                 
H 28.099507 61.375380 50.012341                                                 
C 29.372212 60.090832 28.868634                                                 
C 29.253706 59.941542 36.382698                                                 
C 30.671535 62.391581 29.008831                                                 
C 31.945850 59.990795 36.420772                                                 
C 33.381847 57.752864 29.275243                                                 
C 33.304468 57.615314 36.439618                                                 
C 34.715686 60.092899 29.362723                                                 
C 36.007081 57.604747 36.467777                                                 
H 29.631230 64.173605 28.993309                                                 
H 32.331412 64.087433 36.536615                                                 
C 33.355290 62.473287 29.191431                                                 
C 33.358513 62.288110 36.445263                                                 
C 34.732759 64.770026 29.301469                                                 
C 36.039136 62.310876 36.604292                                                 
C 29.207706 59.925687 43.884796                                                 
C 29.156765 59.588879 49.995808                                                 
C 30.504474 62.221744 43.684082                                                 
C 31.832709 59.674430 50.046470                                                 
C 33.215381 57.585041 43.513725                                                 
C 33.218356 57.315253 49.867569                                                 
C 34.551307 59.927169 43.324266                                                 
C 35.914303 57.333631 49.811298                                                 
H 29.472197 64.007935 43.789372                                                 
H 32.161641 63.763496 50.431747                                                 
C 33.166151 62.310383 43.369147                                                 
C 33.208974 61.968518 50.322950                                                 
C 34.559389 64.629562 43.293561                                                 
C 35.846009 62.000060 50.442250                                                 
C 41.456161 57.755889 30.010357                                                 
C 41.408964 57.580178 36.374091                                                 
C 42.800977 60.095415 29.999322                                                 
C 44.106007 57.574183 36.341842                                                 
C 41.337349 57.616615 43.349021                                                 
C 41.341257 57.434932 49.430937                                                 
C 42.696181 59.956849 43.340375                                                 
C 44.044156 57.488010 49.280030                                                 
C 37.424964 60.098143 29.595615                                                 
C 37.378616 59.924389 36.490103                                                 
C 38.774706 62.439973 29.603854                                                 
C 40.069327 59.921063 36.395269                                                 
C 37.272052 59.942221 43.248613                                                 
C 37.255762 59.677204 50.014168                                                 
C 38.625941 62.299416 43.291940                                                 
C 39.956730 59.751104 49.770236                                                 
C 41.458763 53.075782 30.110406                                                 
C 41.374925 52.894800 36.275497                                                 
C 42.807651 55.415292 30.126923                                                 
C 44.092168 52.889419 36.128598                                                 
C 41.314449 52.922728 43.458136                                                 
C 41.385345 52.757729 49.482503                                                 
C 42.674540 55.285951 43.442340                                                 
C 44.098667 52.792234 49.430039                                                 
C 37.416364 55.425242 29.782605                                                 
C 37.339273 55.238618 36.427594                                                 
C 38.763702 57.759814 29.828370                                                 
C 40.043754 55.239649 36.373997                                                 
C 37.275890 55.273309 43.333171                                                 
C 37.293526 55.027863 49.623252                                                 
C 38.625429 57.606676 43.307972                                                 
C 40.005877 55.077109 49.470348                                                 
C 41.406509 67.141269 29.903938                                                 
C 41.459799 66.890684 36.205478                                                 
C 42.821025 69.435828 30.022752                                                 
C 44.119608 66.923523 36.451770                                                 
C 41.368841 67.031850 43.242499                                                 
C 41.258169 66.704146 50.520011                                                 
C 42.789983 69.290256 43.197570                                                 
C 43.955663 66.786499 50.574984                                                 
H 37.725557 68.891833 29.627267                                                 
H 40.428173 68.683461 36.145532                                                 
H 37.621482 68.779427 42.817154                                                 
H 40.208135 68.449201 50.966503                                                 
C 41.448312 62.430028 29.858290                                                 
C 41.440643 62.243213 36.285241                                                 
C 42.793240 64.771716 29.940766                                                 
C 44.124710 62.242575 36.419190                                                 
C 41.352403 62.297894 43.356941                                                 
C 41.316613 62.071936 50.018605                                                 
C 42.728186 64.637385 43.320507                                                 
C 44.014590 62.140937 49.855788                                                 
H 33.693301 66.555681 29.290833                                                 
H 33.512315 66.409853 43.325222                                                 
C 37.407193 64.827598 29.444587                                                 
C 37.415138 64.586072 36.358318                                                 
C 38.760899 67.100206 29.637132                                                 
C 40.098092 64.617554 36.103068                                                 
C 37.224554 64.688096 43.185718                                                 
C 37.251858 64.318488 50.501090                                                 
C 38.636893 66.995544 43.041346                                                 
C 39.948149 64.388055 50.458715                                                 
C 61.672965 41.433516 29.061642                                                 
C 61.651465 41.165945 36.759766                                                 
C 63.015030 43.705464 29.172798                                                 
H 63.701460 41.167634 36.929132                                                 
C 61.750633 46.040313 29.386583                                                 
C 61.620473 45.855438 36.975289                                                 
C 63.066799 48.377617 29.545458                                                 
H 63.667132 45.854965 37.229418                                                 
H 65.078179 43.690743 29.083094                                                 
C 61.518357 41.168454 42.916638                                                 
C 61.650932 41.191121 50.621234                                                 
C 62.884795 43.448076 42.936261                                                 
H 63.715288 41.221509 50.655674                                                 
C 61.634269 45.826194 43.020177                                                 
C 61.633991 45.885497 50.341751                                                 
C 62.940586 48.166042 43.031404                                                 
H 63.697128 45.913631 50.452713                                                 
H 64.948571 43.434240 42.811875                                                 
C 61.824575 55.408662 29.710954                                                 
C 61.617044 55.173531 37.104334                                                 
C 63.090066 57.764378 29.596958                                                 
H 63.667556 55.162130 37.346904                                                 
H 65.170695 53.030213 29.714978                                                 
C 61.640392 55.213324 42.888639                                                 
C 61.613834 55.205898 50.172773                                                 
C 62.910312 57.571088 42.740284                                                 
H 63.679250 55.187721 50.289488                                                 
H 65.007747 52.861037 42.931646                                                 
C 61.793730 50.711564 29.686528                                                 
C 61.601768 50.514216 36.989712                                                 
C 63.103629 53.045304 29.766989                                                 
H 65.131507 48.362843 29.437292                                                 
C 61.666311 50.518285 42.990446                                                 
C 61.602296 50.552404 50.241410                                                 
C 62.944940 52.859996 42.988447                                                 
H 65.003365 48.148553 42.948229                                                 
H 41.789241 71.226304 30.066562                                                 
H 44.452562 70.999288 36.533528                                                 
H 41.783175 71.092205 43.219648                                                 
H 44.270325 70.849824 50.943737                                                 
C 45.470250 69.426554 30.031754                                                 
C 45.486303 69.217708 36.630357                                                 
H 46.508295 71.211999 30.091777                                                 
C 48.101686 69.229124 36.899054                                                 
C 49.546981 67.076243 29.723955                                                 
C 49.492731 66.939157 36.983629                                                 
H 50.587855 68.862293 29.694854                                                 
C 52.176563 66.909172 36.999476                                                 
H 49.119227 71.017659 37.005439                                                 
C 45.432604 69.269036 43.054468                                                 
C 45.314994 69.066885 50.731515                                                 
H 46.488513 71.041475 42.996934                                                 
C 47.950702 69.137157 50.616769                                                 
C 49.473552 66.894696 42.866803                                                 
C 49.369966 66.888727 50.389895                                                 
H 50.527030 68.660052 42.696933                                                 
C 52.053323 66.892058 50.288899                                                 
H 48.967658 70.942945 50.712070                                                 
H 57.291857 66.358039 37.047181                                                 
H 57.145993 66.418132 50.222870                                                 
H 53.190467 68.707358 37.090974                                                 
H 53.065400 68.687126 50.418266                                                 
C 57.614016 62.442010 29.714949                                                 
C 57.637464 62.273095 36.933804                                                 
H 58.626296 64.246101 29.657400                                                 
C 60.319095 62.181311 37.049509                                                 
C 57.525651 62.213073 42.788213                                                 
C 57.555831 62.338098 50.234501                                                 
H 58.548986 64.000105 42.677635                                                 
C 60.233549 62.254821 50.337272                                                 
C 53.568631 64.731035 29.632037                                                 
C 53.577132 64.632837 36.941353                                                 
C 56.254013 64.577258 36.918424                                                 
C 53.489287 64.540580 42.891845                                                 
C 53.458865 64.636616 50.181199                                                 
C 56.137263 64.622046 50.172856                                                 
C 61.723450 60.101221 29.551023                                                 
C 61.622341 59.876313 37.129959                                                 
H 62.752226 61.892593 29.491579                                                 
H 63.674816 59.858985 37.344758                                                 
H 65.156993 57.785282 29.585553                                                 
H 61.358289 63.957665 37.208089                                                 
C 61.585215 59.863349 42.669235                                                 
C 61.591470 59.917647 50.455163                                                 
H 62.629780 61.656628 42.587813                                                 
H 63.680231 59.930793 50.484117                                                 
H 64.997204 57.584162 42.713828                                                 
H 61.289886 64.044670 50.274842                                                 
H 63.664494 50.563600 50.341023                                                 
H 36.514130 34.618567 50.834059                                                 
H 36.212286 66.095197 50.841297                                                 
H 27.129861 50.596095 43.212463                                                 
H 54.520708 66.319309 42.710368                                                 
H 63.653425 50.505442 37.234597                                                 
H 54.411594 34.708448 43.278355                                                 
H 36.335991 34.750674 36.628084                                                 
H 36.386412 66.384595 36.405008                                                 
H 54.602220 66.522777 29.581004                                                 
H 27.324270 50.749802 28.931943                                                 
H 54.559626 34.937479 29.162266                                                 
Li 32.095657 41.190417 26.178731                                                
Li 30.659125 48.008216 32.921909                                                
Li 58.860024 60.080877 53.565344                                                
Li 36.128952 38.755726 33.045479                                                
Li 60.462030 57.728391 26.401626                                                
Li 42.519481 36.242716 33.356927                                                
Li 30.454829 57.229457 53.236975                                                
Li 35.722028 62.238725 46.652620                                                
Li 47.056480 33.920750 53.127239                                                
Li 30.371883 48.010459 46.620385                                                
Li 51.839991 39.155203 26.453453                                                
Li 35.768025 39.022179 47.026805                                                
Li 44.131073 67.231111 26.674041                                                
Li 35.952048 62.732543 32.811277                                                
Li 30.449333 53.189917 32.840283                                                
Li 40.370638 36.157059 46.733810                                                
Li 55.315910 38.564654 47.038452                                                
Li 60.561882 48.148755 46.547425                                                
Li 44.509520 67.256206 46.665676                                                
Li 50.645011 65.043440 46.671705                                                
Li 50.612944 65.066489 33.435543                                                
Li 40.140220 64.641900 39.886466                                                
Li 60.433834 53.069314 46.478660                                                
Li 50.606618 36.083643 39.665640                                                
Li 30.847992 42.248848 46.808492                                                
Li 60.734177 47.988480 33.146026                                                
Li 55.102912 62.569842 33.388550                                                
Li 60.662452 53.180103 33.279473                                                
Li 60.531836 43.038873 46.588452                                                
Li 30.397845 52.907738 39.748067                                                
Li 55.125685 62.422681 46.613627                                                
Li 55.046783 38.777985 39.627351                                                
Li 31.439893 60.047599 32.557421                                                
Li 44.062083 52.877500 40.058370                                                
Li 59.429391 41.351359 33.085935                                                
Li 50.843855 45.843802 39.724282                                                
Li 34.832913 36.831146 40.074655                                                
Li 42.799829 45.924402 39.793560                                                
Li 59.552965 59.876937 33.472098                                                
Li 50.791986 55.129604 39.717483                                                
Li 38.837185 61.499396 53.737102                                                
Li 39.078890 66.187447 46.923004                                                
Li 30.601952 42.565470 33.148378                                                
Li 43.715550 56.086450 53.107996                                                
Li 31.408155 59.890390 40.207620                                                
Li 41.382867 59.069554 57.595137                                                
Li 56.164647 36.840934 32.610776                                                
Li 37.589590 62.586811 58.915547                                                
Li 60.656032 58.391487 46.477892                                                
Li 43.243080 56.990880 55.991040                                                
%ENDBLOCK POSITIONS_ABS                                                         

--------------------------------------------------------------------------------
-------------------------------- END INPUT FILE --------------------------------
--------------------------------------------------------------------------------


 
<<<<<<<<<<<<<<<<<<<<<<<<<<<<<<<<< Full system >>>>>>>>>>>>>>>>>>>>>>>>>>>>>>>>>>
<<<<<<<<<<<<<<<<<<<<<<<<<<< PAW Dataset information >>>>>>>>>>>>>>>>>>>>>>>>>>>
File: ~/pp/paw/c_pbe_abinit.paw; rc = 1.25 bohr; shape type =  3; rshape = 1.25 bohr;
  Atomic number:  6;  ionic charge:  4.000000
    Partial Wave 1: l = 0
    Partial Wave 2: l = 0
    Partial Wave 3: l = 1
    Partial Wave 4: l = 1
  Core charge supplied for Nonlinear Core Corrections
File: ~/pp/paw/h_pbe_abinit.paw; rc = 0.90 bohr; shape type =  3; rshape = 0.90 bohr;
  Atomic number:  1;  ionic charge:  1.000000
    Partial Wave 1: l = 0
    Partial Wave 2: l = 0
File: ~/pp/paw/li_pbe_abinit.paw; rc = 1.42 bohr; shape type =  3; rshape = 1.42 bohr;
  Atomic number:  3;  ionic charge:  3.000000
    Partial Wave 1: l = 0
    Partial Wave 2: l = 0
    Partial Wave 3: l = 0
    Partial Wave 4: l = 1
    Partial Wave 5: l = 1
<<<<<<<<<<<<<<<<<<<<<<<<<<<<<<<<<<<<<<< >>>>>>>>>>>>>>>>>>>>>>>>>>>>>>>>>>>>>>>

-------------------------- Atom counting information ---------------------------
Symbol    Natoms    Nngwfs    Nprojs
  C        484      1936      3872
  H        108       108       216
  Li        50       250       450
.......   ......    ......    ......
Totals:    642      2294      4538
--------------------------------------------------------------------------------

=============================== PSINC grid sizes ===============================
                      Simulation cell:  189 x 189 x 189
                              FFT-box:  117 x 117 x 117
                                  PPD:    7 x   7 x   1
Grid space d1=  0.499927596032a0 (KE cutoff=  30.39413Eh = 827.06648eV)
Grid space d2=  0.499927596032a0 (KE cutoff=  30.39413Eh = 827.06648eV)
Grid space d3=  0.499927596032a0 (KE cutoff=  30.39413Eh = 827.06648eV)
================================================================================
  
WARNING in cell_grid_distribute:
Average of less than one 23-slab per node, so workload cannot be
equally balanced between nodes.

********************* Fourier parallelisation information **********************
       Coarse grid (whole simulation cell) dimensions:    189   189   189
          Real-space ('12') slabs/node (min max mean):      1     2     1
         Recip-space ('23') slabs/node (min max mean):      0     1     0
********************************************************************************

********************* Fourier parallelisation information **********************
       Double grid (whole simulation cell) dimensions:    378   378   378
          Real-space ('12') slabs/node (min max mean):      2     3     2
         Recip-space ('23') slabs/node (min max mean):      1     2     1
********************************************************************************

Atom SCF Calculation for C  : Z (AE atom) =   6 : Z (PS atom) =   4
Config String: 2s2 2p2
Orbitals (num,occ):  2     2.00 2.00
Orbitals   (num,l):  2        0    1
Real-space Grid (nr,dr,rmax): 1377    0.0065406977    9.0000000000
Spherical Bessel Basis (nsws,lmax,cutoff):   37    2  183.0099912382
Confining potential (l,width,scale):  0    3.0000000000  100.0000000000
Confining potential (l,width,scale):  1    3.0000000000  100.0000000000
  1         -5.4350126632   -1.2715272878    4.5135247139   -1.5681949477
  2         -5.3876836850   -1.3562195125    4.4235426751   -1.5380057521
  3         -5.3928844498   -1.3758175853    4.4021699684   -1.5318377811
  4         -5.3988962903   -1.3800385428    4.3975423583   -1.5307324410
  5         -5.4018428823   -1.3823489590    4.3950111904   -1.5301555648
  6         -5.4033571720   -1.3835805046    4.3936635548   -1.5298576834
  7         -5.4041480647   -1.3842324820    4.3929512000   -1.5297032953
  8         -5.4045641108   -1.3845769138    4.3925755232   -1.5296229456
  9         -5.4047838258   -1.3847587737    4.3923775340   -1.5295810042
 10         -5.4049001347   -1.3848548089    4.3922731819   -1.5295590658
 11         -5.4049618018   -1.3849055476    4.3922181562   -1.5295475724
 12         -5.4049945351   -1.3849323732    4.3921891206   -1.5295415432
 13         -5.4050119258   -1.3849465673    4.3921737867   -1.5295383767
 14         -5.4050211723   -1.3849540841    4.3921656816   -1.5295367119
 15         -5.4050260920   -1.3849580684    4.3921613935   -1.5295358358
 16         -5.4050287113   -1.3849601822    4.3921591228   -1.5295353742
 17         -5.4050301068   -1.3849613045    4.3921579192   -1.5295351307
 18         -5.4050308507   -1.3849619010    4.3921572806   -1.5295350022
 19         -5.4050312476   -1.3849622183    4.3921569415   -1.5295349343
 20         -5.4050314594   -1.3849623873    4.3921567612   -1.5295348984
 21         -5.4050315725   -1.3849624773    4.3921566653   -1.5295348794
 22         -5.4050316330   -1.3849625253    4.3921566143   -1.5295348693
Atom SCF converged after  22 iterations to a total energy of     -5.40503163

Atom SCF Calculation for H  : Z (AE atom) =   1 : Z (PS atom) =   1
Config String: 1s1
Orbitals (num,occ):  1     1.00
Orbitals   (num,l):  1        0
Real-space Grid (nr,dr,rmax): 1377    0.0065406977    9.0000000000
Spherical Bessel Basis (nsws,lmax,cutoff):   37    1  183.0099912382
Confining potential (l,width,scale):  0    3.0000000000  100.0000000000
  1         -0.3605254152   -0.2399954029    0.2820952946   -0.2424203210
  2         -0.4156854077   -0.2398249290    0.2871789324   -0.2464796203
  3         -0.4412552402   -0.2379720642    0.2899127187   -0.2499011370
  4         -0.4517265951   -0.2371980236    0.2908966173   -0.2514141636
  5         -0.4557775773   -0.2369735141    0.2911607883   -0.2519713623
  6         -0.4573363459   -0.2369240355    0.2912108681   -0.2521663171
  7         -0.4579443228   -0.2369187864    0.2912112833   -0.2522344454
  8         -0.4581858602   -0.2369215483    0.2912049187   -0.2522587615
  9         -0.4582834939   -0.2369242589    0.2912002081   -0.2522677042
 10         -0.4583235236   -0.2369258837    0.2911975892   -0.2522710965
 11         -0.4583401154   -0.2369267223    0.2911962825   -0.2522724192
 12         -0.4583470483   -0.2369271266    0.2911956643   -0.2522729467
 13         -0.4583499624   -0.2369273145    0.2911953803   -0.2522731607
 14         -0.4583511926   -0.2369274000    0.2911952521   -0.2522732486
 15         -0.4583517136   -0.2369274385    0.2911951948   -0.2522732850
 16         -0.4583519349   -0.2369274556    0.2911951693   -0.2522733002
 17         -0.4583520290   -0.2369274632    0.2911951581   -0.2522733066
Atom SCF converged after  17 iterations to a total energy of     -0.45835203

Atom SCF Calculation for Li : Z (AE atom) =   3 : Z (PS atom) =   3
Config String: 1s2 2s1 2p0
Orbitals (num,occ):  3     2.00 1.00 0.00
Orbitals   (num,l):  3        0    0    1
Real-space Grid (nr,dr,rmax): 1377    0.0065406977    9.0000000000
Spherical Bessel Basis (nsws,lmax,cutoff):   37    2  183.0099912382
Confining potential (l,width,scale):  0    3.0000000000  100.0000000000
Confining potential (l,width,scale):  1    3.0000000000  100.0000000000
  1         -6.0640888065   -4.6655401716    2.5388576516   -0.9989538799
  2         -6.9627542978   -4.0954079129    2.9808988108   -1.1965571426
  3         -7.2692687601   -3.8889996707    3.2029735703   -1.3193883705
  4         -7.3784440298   -3.8322099748    3.2868571989   -1.3711018151
  5         -7.4170278248   -3.8191968371    3.3144974220   -1.3911175539
  6         -7.4303549880   -3.8172386945    3.3228486489   -1.3986896266
  7         -7.4348052089   -3.8175483495    3.3251259310   -1.4015352495
  8         -7.4362242328   -3.8180607346    3.3256233205   -1.4026016384
  9         -7.4366459715   -3.8184145665    3.3256561549   -1.4029998726
 10         -7.4367560626   -3.8186169740    3.3256001574   -1.4031477379
 11         -7.4367765260   -3.8187239825    3.3255481763   -1.4032021548
 12         -7.4367751741   -3.8187782620    3.3255144587   -1.4032219192
 13         -7.4367707398   -3.8188051288    3.3254952336   -1.4032289600
 14         -7.4367680349   -3.8188156035    3.3254870176   -1.4032309087
 15         -7.4367661982   -3.8188217406    3.3254819951   -1.4032318132
 16         -7.4367650112   -3.8188253257    3.3254789583   -1.4032322224
 17         -7.4367642682   -3.8188274151    3.3254771375   -1.4032324006
 18         -7.4367638134   -3.8188286307    3.3254760529   -1.4032324736
 19         -7.4367635392   -3.8188293370    3.3254754103   -1.4032325004
 20         -7.4367633760   -3.8188297469    3.3254750310   -1.4032325080
 21         -7.4367632796   -3.8188299846    3.3254748079   -1.4032325082
Atom SCF converged after  21 iterations to a total energy of     -7.43676328

Determining parallel strategy ...
... using space-filling curve
... NGWF load balancing: max     17;  min     12;  average     14
... Projector load balancing: max     34;  min     24;  average     28
... done
Calculating Ewald energy ...
              Ewald: real-space energy =   36967.201991
        Ewald: reciprocal-space energy =   37394.645294
         Ewald: (sum_charge)**2 Energy =    2952.768008
         Ewald: (sum_charge**2) Energy =     258.069285
                          Ewald Energy =   71151.009993
======================= Empirical dispersion information =======================
Model : Grimme D2
Dispersion Correction Energy: -0.25252966E+01 Hartree
================================================================================
Basis initialisation ...... NGWF spheres initialised
... Projector spheres initialised
... NGWF tight boxes initialised
... Projector tight boxes initialised
... Tight-boxes gathered
... NGWF basis size (local,global):     287414  46264770
... PAW projector initialisation
... done

============================= Charge Augmentation ==============================
                           Aug box size:   13 x  13 x  13
================================================================================

========================== Sparse matrix information ===========================
                        Overlap matrix filling:  36.28%
                        Density kernel filling: 100.00%
              NGWF-Proj overlap matrix filling:  10.17%
                    Aug Overlap matrix filling:  41.14%
                    Hamiltonian matrix filling:  41.14%
                  NGWF diagonal matrix filling:   0.17%
                             KS matrix filling: 100.00% 
                           KSKS matrix filling: 100.00% 
================================================================================

Sparse matrix initialisation ... done
NGWF initialisation ...... done
============ Calculation of NGWF S^-1 using Hotelling algorithm ================ 
         Iteration  |  Frobenius norm and Maximum abs value    (of I-S*S_n^-1)   
               1       0.47590866E+02     0.99684088E+00
               2       0.47302458E+02     0.99369815E+00
               3       0.46769771E+02     0.98746058E+00
               4       0.45850702E+02     0.97516898E+00
               5       0.44425228E+02     0.95126400E+00
               6       0.42478515E+02     0.90582822E+00
               7       0.40056830E+02     0.82277198E+00
               8       0.37187796E+02     0.78669123E+00
               9       0.34043946E+02     0.76571794E+00
              10       0.30945841E+02     0.74923978E+00
              11       0.27786619E+02     0.73401768E+00
              12       0.23939699E+02     0.70777742E+00
              13       0.18953085E+02     0.66053959E+00
              14       0.13002041E+02     0.57948033E+00
              15       0.74775372E+01     0.53400218E+00
              16       0.42085956E+01     0.51592304E+00
              17       0.28779977E+01     0.49358524E+00
              18       0.20535788E+01     0.47194692E+00
              19       0.14730708E+01     0.45628903E+00
              20       0.11971187E+01     0.44100793E+00
              21       0.10188320E+01     0.41432014E+00
              22       0.82534425E+00     0.36629665E+00
              23       0.62155399E+00     0.28727138E+00
              24       0.38240324E+00     0.17743974E+00
              25       0.14621667E+00     0.67841333E-01
              26       0.21379314E-01     0.99195205E-02
              27       0.45707505E-03     0.21207254E-03
              28       0.20891762E-06     0.96933108E-07
              29       0.97494810E-13     0.26201263E-13
================================================================================
Calculating core density ...
================================= Core Density =================================
               Core den box size:   21 x  21 x  21
================================================================================
 ... done
Up spin density kernel initialisation ...... done

Writing density kernel to file "50/592nano.dkn" ... done

>>> Optimising kernel for current NGWFs:

--------------------------- Ensemble-DFT optimisation --------------------------
Running ScaLAPACK on  160 processor(s).

--------------------------------------------------------------------------------
  Iter                              Commutator    Free_energy(A=E-TS)     DeltaA
#    0                          0.001365318273   -3193.20990066669992  -3.19E+03

Step                       =       0.381966011250
Energy                     =   -3193.181238450366
Entropy (-TS)              =      -0.028662216353
Free energy (A=E-TS)       =   -3193.209900666700
Est. 0K Energy 0.5*(E+A)   =   -3193.195569558533
Residual Non-orthogonality =       0.000000000000
Residual N_electrons       =       0.000000000019

Spin          Integrated_Ne            Fermi_level     Delta_Fermi_level
   1      2194.000000000085        -0.222944373459             -2.23E-01

                           Spin 1          
     Orb      H-eigenvalues     Occupancies
       1 |    -1.9490214081    1.0000000000 | 
                          ------
    1093 |    -0.2311314921    0.9299086974 | 
    1094 |    -0.2306349531    0.9189743983 | 
    1095 |    -0.2297242854    0.8948178847 | 
    1096 |    -0.2282488455    0.8422439502 | 
    1097 |    -0.2252452248    0.6740480487 | 
                 - Gap at zero temperature -
    1098 |    -0.2234409640    0.5391225886 | 
    1099 |    -0.2156966980    0.0920685891 | 
    1100 |    -0.2135765605    0.0493540670 | 
    1101 |    -0.2118554719    0.0292667882 | 
    1102 |    -0.2116706355    0.0276533625 | 
                          ------
    2294 |     0.5545762229    0.0000000000 | 

                       |  Abs_value |  Threshold | Converged
     Delta_Free_energy |   3.19E+03 |   1.00E-06 |        No
     Delta_Energy      |   3.19E+03 |   1.00E-04 |        No
     Delta_Entropy     |   2.87E-02 |   1.00E-04 |        No
     Commutator        |   1.37E-03 |   1.00E-05 |        No
     Delta_Fermi_level |   2.23E-01 |   1.00E-03 |        No

  Line search of the free energy minimum:
  Step_type        Step             Free_energy   Predicted_free_energy
.   Initial    0.000000    -3193.20990066669992
.    Trial1    0.381966    -3166.61861971409644
.    Trial2    0.145898    -3193.96275871388525
. Quadratic    0.081094    -3194.37578421671969    -3195.29300545938850

--------------------------------------------------------------------------------
  Iter                              Commutator    Free_energy(A=E-TS)     DeltaA
#    1                          0.001086664408   -3194.37578421671969  -1.17E+00

Step                       =       0.081094230015
Energy                     =   -3194.338399230985
Entropy (-TS)              =      -0.037384985877
Free energy (A=E-TS)       =   -3194.375784216720
Est. 0K Energy 0.5*(E+A)   =   -3194.357091723852
Residual Non-orthogonality =       0.000000000000
Residual N_electrons       =       0.000000000142

Spin          Integrated_Ne            Fermi_level     Delta_Fermi_level
   1      2194.000000000673        -0.211561891580              1.14E-02

[...]
 C     1 -- C     7       -0.09      5.42237
 C    65 -- C    91       -0.08      5.42240
 C    81 -- C    87       -0.09      5.42270
 C   266 -- C   452       -0.09      5.42273
 C   352 -- C   378       -0.09      5.42277
 C   246 -- C   276       -0.08      5.42279
 C    29 -- C   355       -0.09      5.42299
 C   193 -- C   219       -0.09      5.42306
 C   420 -- C   444       -0.08      5.42315
 C   346 -- C   376       -0.09      5.42317
 C   185 -- C   299       -0.09      5.42320
 C   212 -- C   230       -0.08      5.42327
 C    37 -- C   367       -0.09      5.42330
 C   111 -- C   121       -0.09      5.42349
 C    44 -- C    58       -0.09      5.42349
 C   285 -- C   287       -0.08      5.42358
 C   202 -- C   216       -0.08      5.42361
 C    33 -- C    43       -0.09      5.42386
 C    19 -- C    21       -0.09      5.42393
 C    38 -- C    56       -0.08      5.42407
 H   587 -- Li  616       -0.02      5.42409
 C    40 -- C   102       -0.08      5.42423
 C   273 -- C   435       -0.09      5.42432
 C   302 -- C   346       -0.08      5.42432
 C   446 -- C   460       -0.09      5.42432
 C    59 -- C    97       -0.09      5.42445
 C    35 -- C   497       -0.08      5.42467
 C    94 -- C   116       -0.09      5.42469
 C   118 -- C   438       -0.08      5.42472
 C   437 -- C   443       -0.09      5.42492
 C    12 -- C   122       -0.08      5.42500
 C   357 -- C   367       -0.08      5.42502
 C   256 -- C   410       -0.09      5.42510
 C    63 -- C   101       -0.09      5.42518
 C    28 -- C   114       -0.08      5.42529
 C    36 -- C    98       -0.08      5.42551
 C    97 -- C   123       -0.09      5.42558
 C    88 -- C   118       -0.08      5.42567
 C   279 -- C   383       -0.08      5.42567
 C    65 -- C   513       -0.06      5.42600
 C   461 -- C   479       -0.09      5.42645
 C    19 -- C   451       -0.08      5.42702
 C   244 -- C   450       -0.08      5.42711
 C   119 -- C   125       -0.08      5.42718
 C   217 -- C   353       -0.08      5.42727
 C   349 -- C   363       -0.09      5.42736
 C   113 -- C   119       -0.09      5.42737
 C    39 -- C   506       -0.07      5.42748
 C   241 -- Li  629       -0.07      5.42748
 C    26 -- C   462       -0.08      5.42751
 C    14 -- C   450       -0.08      5.42764
 C   293 -- C   295       -0.08      5.42798
 C   224 -- C   242       -0.08      5.42802
 C     4 -- C    10       -0.08      5.42826
 C    90 -- C   124       -0.09      5.42845
 C   343 -- C   365       -0.07      5.42849
 C   362 -- C   376       -0.09      5.42861
 C   436 -- C   482       -0.08      5.42897
 Li  604 -- Li  608       -0.16      5.42944
 C   222 -- C   374       -0.09      5.42968
 C   438 -- C   452       -0.08      5.43009
 C   247 -- C   355       -0.08      5.43009
 C    48 -- C   126       -0.09      5.43041
 C   385 -- C   395       -0.08      5.43087
 C    39 -- C   516       -0.07      5.43100
 C   362 -- C   392       -0.06      5.43133
 C    79 -- C    89       -0.08      5.43147
 C   470 -- C   480       -0.08      5.43151
 H   514 -- Li  620       -0.03      5.43167
 C   246 -- C   448       -0.08      5.43191
 C   318 -- C   380       -0.07      5.43196
 C    34 -- C   100       -0.08      5.43201
 C    85 -- C    95       -0.08      5.43208
 C    27 -- C    29       -0.08      5.43267
 C   204 -- C   294       -0.07      5.43309
 C    70 -- C   104       -0.08      5.43319
 C    80 -- C   556       -0.07      5.43331
 C    51 -- C   521       -0.08      5.43357
 C   406 -- C   440       -0.08      5.43361
 C    25 -- C   249       -0.07      5.43438
 C    61 -- C   387       -0.08      5.43492
 C   413 -- C   441       -0.07      5.43519
 C   479 -- C   491       -0.06      5.43521
 H   519 -- Li  615       -0.03      5.43533
 C     8 -- C   350       -0.08      5.43541
 C   114 -- C   446       -0.09      5.43584
 C    60 -- C   362       -0.09      5.43625
 C   408 -- C   416       -0.08      5.43634
 C    16 -- C   110       -0.08      5.43639
 Li  633 -- Li  640        0.32      5.43647
 C   244 -- C   278       -0.08      5.43652
 C     2 -- C   348       -0.09      5.43677
 C    76 -- C   564       -0.08      5.43684
 C    94 -- C   128       -0.09      5.43743
 C   181 -- C   287       -0.08      5.43787
 C   440 -- C   488       -0.07      5.43794
 C    17 -- C   281       -0.08      5.43809
 C   316 -- C   390       -0.08      5.43836
 C   182 -- C   188       -0.08      5.43950
 C    14 -- C   112       -0.08      5.43952
 C   258 -- C   288       -0.08      5.43958
 C   188 -- C   286       -0.07      5.44081
 C   424 -- C   436       -0.09      5.44121
 C   222 -- C   300       -0.09      5.44217
 C    96 -- C   567       -0.07      5.44283
 C     2 -- C   270       -0.08      5.44296
 C   368 -- C   394       -0.07      5.44305
 C    84 -- C   567       -0.08      5.44357
 C   256 -- C   290       -0.08      5.44360
 C    67 -- C    89       -0.08      5.44396
 C   444 -- C   492       -0.07      5.44414
 C    17 -- C   453       -0.07      5.44459
 C   452 -- Li  636       -0.08      5.44559
 C    99 -- C   521       -0.07      5.44587
 C     6 -- C   352       -0.08      5.44622
 C   185 -- C   235       -0.07      5.44663
 C   253 -- C   413       -0.08      5.44667
 C   409 -- C   485       -0.07      5.44686
 Li  594 -- Li  635       -0.17      5.44776
 C   233 -- C   239       -0.08      5.44780
 C   339 -- C   361       -0.08      5.44866
 H   577 -- Li  641       -0.03      5.44881
 C   182 -- C   220       -0.08      5.44885
 C   206 -- C   292       -0.07      5.44921
 C    83 -- C   467       -0.08      5.44930
 H   561 -- Li  623       -0.03      5.44971
 C   377 -- C   391       -0.07      5.45048
 C    71 -- C   516       -0.08      5.45141
 C   114 -- Li  636       -0.07      5.45272
 C   198 -- C   204       -0.08      5.45292
 C    92 -- C   564       -0.07      5.45358
 C   333 -- C   365       -0.08      5.45364
 H   129 -- Li  635       -0.03      5.45418
 C   234 -- Li  608       -0.09      5.45426
 C   220 -- C   238       -0.08      5.45555
 C    35 -- C   511       -0.07      5.45625
 C    88 -- C   560       -0.07      5.45713
 C   261 -- C   427       -0.08      5.45763
 C   252 -- C   406       -0.08      5.45768
 C    52 -- C   338       -0.08      5.45925
 C    68 -- C   556       -0.08      5.45983
 C   103 -- C   525       -0.07      5.46018
 C   427 -- C   445       -0.07      5.46035
 C   190 -- C   284       -0.07      5.46114
 H   587 -- Li  609       -0.03      5.46136
 C   183 -- C   237       -0.07      5.46148
 H   500 -- Li  618       -0.03      5.46152
 C   423 -- C   489       -0.07      5.46186
 H   581 -- Li  610       -0.02      5.46343
 C   197 -- C   199       -0.08      5.46405
 C    75 -- C   463       -0.08      5.46409
 C   260 -- C   420       -0.08      5.46651
 C   234 -- C   332       -0.08      5.46703
 C   445 -- C   467       -0.06      5.47009
 C    55 -- C   525       -0.07      5.47020
 C   343 -- C   506       -0.08      5.47063
 C   199 -- C   241       -0.06      5.47095
 H   505 -- Li  621       -0.02      5.47535
 C   319 -- C   361       -0.07      5.47550
 C   562 -- Li  641       -0.04      5.47710
 C   338 -- C   380       -0.06      5.47976
 H   509 -- Li  610       -0.02      5.48423
 C   430 -- C   480       -0.07      5.48745
 C   201 -- C   239       -0.06      5.48961
 H   571 -- Li  631       -0.03      5.49023
 C   252 -- C   286       -0.06      5.49115
 C   187 -- Li  635       -0.07      5.49488
 C   254 -- C   284       -0.06      5.50028
 H   162 -- Li  594       -0.03      5.50115
 H   587 -- Li  624       -0.02      5.50404
 C   481 -- C   489       -0.06      5.50552
 C   364 -- C   390       -0.06      5.50927
 H   590 -- Li  619       -0.02      5.51124
 C    67 -- C   511       -0.07      5.51193
 H   141 -- Li  596       -0.03      5.51434
 H   472 -- Li  614       -0.02      5.51468
 C    72 -- C   560       -0.07      5.51996
 C   185 -- Li  635       -0.06      5.52495
 C   201 -- Li  629       -0.07      5.52666
 C   181 -- C   183       -0.06      5.52667
 C   198 -- Li  604       -0.05      5.53009
 C    75 -- Li  613       -0.08      5.53034
 H   165 -- Li  602       -0.02      5.53575
 C   205 -- Li  622       -0.07      5.53715
 C   570 -- C   575       -0.04      5.53942
 Li  611 -- Li  634       -0.11      5.54078
 H   130 -- Li  635       -0.02      5.54191
 H   585 -- Li  623       -0.02      5.54844
 H   174 -- Li  607       -0.02      5.55915
 H   398 -- Li  627       -0.02      5.56093
 H   131 -- Li  617       -0.02      5.56219
 C   545 -- Li  611       -0.05      5.56694
 H   591 -- Li  607       -0.02      5.56734
 H   147 -- Li  604       -0.02      5.56786
 C   193 -- Li  594       -0.05      5.56831
 H   369 -- Li  624       -0.01      5.58305
 H   132 -- Li  617       -0.02      5.58429
 Li  627 -- Li  639       -0.08      5.58823
 H   146 -- Li  604       -0.02      5.59078
 H   532 -- Li  611       -0.02      5.59224
 H   168 -- Li  625       -0.02      5.59989
 C   153 -- Li  629       -0.07      5.60589
 H   371 -- Li  609       -0.02      5.60852
 C   480 -- Li  634       -0.03      5.61494
 H   586 -- Li  618       -0.02      5.61903
 C   488 -- Li  606       -0.07      5.61950
 H   581 -- Li  615       -0.01      5.62438
 C   181 -- Li  594       -0.03      5.62915
 H   544 -- Li  611       -0.02      5.63066
 H   129 -- Li  593       -0.01      5.63127
 H   586 -- Li  620       -0.02      5.63407
 H   572 -- H   577       -0.00      5.64032
 H   400 -- Li  621       -0.02      5.64207
 C    84 -- Li  611       -0.04      5.64222
 C    83 -- Li  612       -0.04      5.65159
 H   412 -- Li  637       -0.02      5.65189
 H   572 -- Li  631       -0.02      5.65575
 C   513 -- Li  631       -0.04      5.65603
 C   343 -- Li  624       -0.07      5.65631
 H   473 -- Li  614       -0.01      5.66146
 H   139 -- Li  593       -0.01      5.66568
 H   483 -- Li  606       -0.02      5.66673
 H   571 -- Li  597       -0.01      5.66863
==================================================


=================== Orbital energy and occupancy information ===================

      Total number of orbitals:    2294
        Occupancy sum (kernel):    1097.000000000
   Occupancy sum (eigenvalues):    1097.000000000
                 HOMO-LUMO gap:       0.001490043 Eh
                 Mid-gap level:      -0.062366956 Eh

                        Orbital | Energy (Eh) | Occupancy
                            1    -1.888887158   1.0000000
                        .......   ...........   .........
                         1089    -0.076675680   0.9837420
                         1090    -0.075296738   0.9750222
                         1091    -0.074492220   0.9681331
                         1092    -0.072780945   0.9463836
                         1093    -0.069957065   0.8781923
                         1094    -0.068723072   0.8298631
                         1095    -0.066890731   0.7334033
                         1096    -0.066011480   0.6762623
                         1097    -0.065084127   0.6080060
                         1098    -0.063111978   0.4541075
                        ....... -- gap at 0K -- .........
                         1099    -0.061621935   0.3414346
                         1100    -0.059565959   0.2135718
                         1101    -0.057049206   0.1094056
                         1102    -0.054513730   0.0517208
                         1103    -0.053913863   0.0435717
                         1104    -0.053397363   0.0371901
                         1105    -0.052448062   0.0276189
                         1106    -0.052342090   0.0268667
                         1107    -0.051566022   0.0211814
                         1108    -0.051108509   0.0183119
                        .......   ...........   .........
                         2294     0.781138275   0.0000000

================================================================================

===================== Writing canonical molecular orbitals =====================
| Orbital  Energy (eV)  Norm     |
| HOMO     -1.71736431  1.000000 | Writing "50/592nano_HOMO.cube" ... done
Writing "50/592nano_HOMO.dx" ... done
| LUMO     -1.67681817  1.000000 | Writing "50/592nano_LUMO.cube" ... done
Writing "50/592nano_LUMO.dx" ... done
================================================================================

================== Local Density of States (LDOS) calculation ==================
Writing "50/592nano_LDOS.txt" ...  done
================================================================================
 
===================== Density of States (DOS) calculation ======================
Writing "50/592nano_DOS.txt" ...  done
================================================================================
 
Writing bands to file "50/592nano.val_bands" ... done
 
================ Projected Density of States (pDOS) calculation ================
 
Constructing AM resolved functions  ...... done
Writing NGWF plot files in formats: CUBE DX ...  done
 
Performing overlap integrals ...  done
 
Computing pDOS weights ...  done
 
All bands spilling parameter =   2.96 %
Occupancy-weighted spilling parameter =   0.82 %
 
 => Outputting data for OptaDOS <=
 
Writing pDOS weights to file "50/592nano.val_pdos_bin" ... done
 
Writing band gradients to file "50/592nano.val_dome_bin" ... done
 
Writing Castep output cell file to "50/592nano-out.cell" ... done
 
 => Computing Gaussian smeared pDOS <= 
Writing "50/592nano_PDOS.txt" ...  done
 
 => Computing Occupancy-weighted Gaussian smeared pDOS <= 
Writing "50/592nano_occ_PDOS.txt" ...  done
  => Band centres: 
 S band centre of group 1:  -19.538868 eV
 P band centre of group 1:   -8.305779 eV
  Band centres done. <=
  => Integrated number of electrons in each AM band: 
 S num electrons of group 1:  632.539818
 P num electrons of group 1: 1543.464659
  Integrated number of electrons done. <=
================================================================================

------------------------------ TIMING INFORMATION ------------------------------
AVERAGE TIME:   10509.970s on    160 node(s)                                    
TOTAL TIME:     10509.972s on    160 node(s)                                    
================= AVERAGE TIMINGS FROM ALL NODES (CUMULATIVE) ==================
|| TAG                                    #calls    cpu time   %total  Gflops ||
|| work_imbalance                       :     1        0.00s   0.000%  ------ ||
|| paw_sphere_density_on_grid           :     1        0.01s   0.000%  ------ ||
|| sparse_set_to_garbage                :   159        0.01s   0.000%  ------ ||
|| basis_extract_function_from_box      :   401        0.02s   0.000%  ------ ||
|| paw_tcore_density                    :     1        0.03s   0.000%  ------ ||
|| paw_dij_hartree                      :  1079        0.04s   0.000%  ------ ||
|| ngwfs_initialise_from_radial         :     2        0.04s   0.000%  ------ ||
|| density_init_guess_real              :     1        0.14s   0.001%  ------ ||
|| ewald_calculate_energy               :     1        0.15s   0.001%  ------ ||
|| paw_tcore_hartree_on_grid            :     1        0.37s   0.004%  ------ ||
|| paw_dataset_init                     :     3        0.41s   0.004%  ------ ||
|| pseudo_make_structure_factor         :     1        0.52s   0.005%  ------ ||
|| restart_kernel_write                 :    15        1.15s   0.011%  ------ ||
|| sparse_init                          :     1        1.19s   0.011%  ------ ||
|| dense_normal_eigensolve              :     1        1.35s   0.013%  ------ ||
|| paw_species_calc_proj_prec_mat       :     1        2.20s   0.021%  ------ ||
|| fourier_apply_box_pair               :   601        6.94s   0.066%  2.289k ||
|| ngwf_gradient_coeffs                 :    14        7.27s   0.069%  ------ ||
|| sw_init                              :     1        7.54s   0.072%  ------ ||
|| sparse_embed_hotelling_invert_embed  :    27        8.25s   0.079%  ------ ||
|| augmentation_screen_dij              :   809       16.48s   0.157%  ------ ||
|| basis_copy_function_to_box           : 16000       22.46s   0.214%  ------ ||
|| paw_dij_xc                           :  1079       23.23s   0.221%  ------ ||
|| projectors_init_fftbox_recip         :    85       31.61s   0.301%  ------ ||
|| hartree_on_grid                      :   804       37.06s   0.353%  ------ ||
|| integrals_kinetic                    :    27       39.39s   0.375%  ------ ||
|| projectors_func_ovlp_box             :    28       41.64s   0.396%  ------ ||
|| function_ops_brappd_ketppd           :    56       45.95s   0.437%  ------ ||
|| hamiltonian_energy_components        :     3       50.67s   0.482%  ------ ||
|| eigenstates_pdos                     :     1       60.68s   0.577%  ------ ||
|| augmentation_density_on_grid         :   804       68.37s   0.651%  ------ ||
|| sparse_trace                         : 10094       71.87s   0.684%  ------ ||
|| aug_nonlocal_mat                     :  1065       74.78s   0.711%  ------ ||
|| fourier_apply_cell_forward           :  4016       81.44s   0.775% 171.627 ||
|| fourier_apply_cell_backward          :  4017       86.93s   0.827% 160.846 ||
|| basis_dot_function_with_box          : 3.568M      97.24s   0.925%  ------ ||
|| eigenstates_calculate                :     1      111.85s   1.064%  ------ ||
|| xc_energy_potential                  :   803      153.44s   1.460%  ------ ||
|| restart_ngwfs_tightbox_output        :    13      164.32s   1.564%  ------ ||
|| basis_add_function_to_box            : 10.26M     268.09s   2.551%  ------ ||
|| sparse_product                       :  8872      278.36s   2.649%  ------ ||
|| dense_eigensolve                     :   773      306.68s   2.918%  ------ ||
|| projectors_gradient_batch            :    28      331.23s   3.152%  ------ ||
|| cell_grid_extract_box_real           :  9155      382.76s   3.642%  ------ ||
|| cell_grid_deposit_box_real           : 29797      424.00s   4.034%  ------ ||
|| projectors_grad_precond_batch        :    28      459.39s   4.371%  ------ ||
|| integrals_locpot_mat_els_batch       :   540      480.49s   4.572%  ------ ||
|| density_fftbox_deposit_to_cell       : 13668      750.78s   7.143%  ------ ||
|| ngwf_gradient_build_batch            :    28      874.62s   8.322%  ------ ||
|| properties_calculate                 :     1      917.45s   8.729%  ------ ||
|| density_batch_row_sums               :  1608      948.55s   9.025%  ------ ||
|| ngwf_gradient_batch                  :    28      954.19s   9.079%  ------ ||
|| edft_diag_ngwf_ham                   :   772     1028.20s   9.783%  ------ ||
|| potential_apply_to_ngwf_batch        :   540     1035.00s   9.848%  ------ ||
|| fourier_apply_box                    : 50006     1095.49s  10.423%  3.951k ||
|| ngwf_gradient_lnv                    :    14     1297.67s  12.347%  ------ ||
|| density_fftbox_interpolate_multiply  : 13668     1312.05s  12.484%  ------ ||
|| integrals_locpot_dbl_grid            :   270     1523.83s  14.499%  ------ ||
|| edft_apply_smearing_operator         :   772     1776.13s  16.899%  ------ ||
|| density_batch_interp_deposit         :  1608     2664.43s  25.351%  ------ ||
|| density_on_dbl_grid                  :   804     3795.57s  36.114%  ------ ||
|| hamiltonian_lhxc_calculate           :   799     4266.85s  40.598%  ------ ||
|| edft_calculate                       :    14     7723.58s  73.488%  ------ ||
|| ngwf_cg_optimise                     :     1     9575.70s  91.111%  ------ ||
|| total_time                           :     1    10509.97s 100.000%  ------ ||
================================================================================
Overhead of generating timer report: 
- 0 ms averaging over threads,
- 25 ms ensuring consistency across MPI ranks,
- 0 ms printing in order.

Job completed: 03-08-2020 03:06 (+0100)

