 +---------------------------------------------------------------+
 |                                                               |
 |        ####### #     # ####### ####### ####### ######         |
 |        #     # ##    # #          #    #       #     #        |
 |        #     # # #   # #          #    #       #     #        |
 |        #     # #  #  # #####      #    #####   ######         |
 |        #     # #   # # #          #    #       #              |
 |        #     # #    ## #          #    #       #              |
 |        ####### #     # #######    #    ####### #              |
 |                                                               |
 |        Linear-Scaling Ab Initio Total Energy Program          |
 |                                                               |
 |          Release for academic collaborators of ODG            |
 |                                             Version 5.3.2.12  |
 |                                                               |
 +---------------------------------------------------------------+
 |                                                               |
 |  Authors:                                                     |
 |  Jacek Dziedzic, Peter D. Haynes, Nicholas D. M. Hine,        |
 |  Arash. A. Mostofi, Mike C. Payne and Chris-Kriton Skylaris   |
 |                                                               |
 |  Contributors:                                                |
 |  J. Aarons, L. Andrinopoulos, P. W. Avraam, R. A. Bell,       |
 |  A. Bhandari, G. A. Bramley, R. J. Charlton, S. J. Clark,     |
 |  R. J. Clements, G. C. Constantinescu, F. Corsetti,           |
 |  N. Corsini, O. Dieguez, S. M. M. Dubois, K. K. B. Duff,      |
 |  J. M. Escartin, A. Greco, H. Helal, Q. O. Hill, L. P. Lee,   |
 |  J.-H. Li, E. B. Linscott, G. Moynihan, D. D. O`Regan,        |
 |  O. K. Okan, M. J. S. Phipps, C. J. Pickard,                  |
 |  J. C. A. Prentice, M. I. J. Probert, L. E. Ratcliff,         |
 |  M. Robinson, A. Ruiz Serrano, J. S. Spencer, E. W. Tait,     |
 |  G. Teobaldi, D. Turban, V. Vitale, K. A. Wilkinson,          |
 |  C. Weber, J. C. Womack, N. Yeung and T. J. Zuehlsdorff       |
 |                                                               |
 |                                   Copyright (c) 2004-2020     |
 |                                                               |
 |  Please cite:                                                 |
 |  "Introducing ONETEP: Linear-scaling density functional       |
 |   simulations on parallel computers".                         |
 |   C.-K. Skylaris, P. D. Haynes, A. A. Mostofi, M. C. Payne.   |
 |   J. Chem. Phys. 122 084119 (2005).                           |
 |                                                               |
 |          in all publications arising from your use of ONETEP. |
 |                                                               |
 +---------------------------------------------------------------+
 |                                                               |
 |   ONETEP is based on developments described in the following  |
 |   publications:                                               |
 |                                                               |
 |  "Nonorthogonal generalized Wannier function pseudopotential  |
 |   plane-wave method".                                         |
 |   C.-K. Skylaris, A. A. Mostofi, P. D. Haynes, O. Dieguez,    |
 |   M. C. Payne.                                                |
 |   Phys. Rev. B 66 035119 (2002).                              |
 |                                                               |
 |  "Preconditioned iterative minimization for linear-scaling    |
 |   electronic structure calculations".                         |
 |   A. A. Mostofi, P. D. Haynes, C.-K. Skylaris, M. C. Payne.   |
 |   J. Chem. Phys. 119(17), pp.8842-8848 (2003).                |
 |                                                               |
 |  "Total-energy calculations on a real space grid with         |
 |   localized functions and a plane-wave basis".                |
 |   A. A. Mostofi, C.-K. Skylaris, P. D. Haynes, M. C. Payne.   |
 |   Comput. Phys. Commun. 147, pp.788-802 (2002).               |
 |                                                               |
 |  "Accurate kinetic energy evaluation in electronic structure  |
 |   calculations with localized functions on real space grids"  |
 |   C.-K. Skylaris, A. A. Mostofi, P. D. Haynes, C. J. Pickard, |
 |   M. C. Payne.                                                |
 |   Comput. Phys. Commun. 140, pp.315-322 (2001).               |
 |                                                               |
 |  "Accurate ionic forces and geometry optimization in linear-  |
 |   scaling density-functional theory with local orbitals"      |
 |   N. D. M. Hine, M. Robinson, P. D. Haynes, C.-K. Skylaris,   |
 |   M. C. Payne, and A. A. Mostofi.                             |
 |   Phys. Rev. B 83 195102 (2011).                              |
 |                                                               |
 +---------------------------------------------------------------+

Job started: 27-10-2020 21:48 (-0000)
 
Reading parameters from file "592nano.dat" ...... done

If your calculation crashes here, before "Checking processes and threads..."
is displayed, then your stack size is insufficient.
If so, use "ulimit -s unlimited" at runtime.
You can disable this check with "check_stack_size F".

Checking processes and threads...
   Determining the default number of threads...
      No default threads set at compilation time: defaulting to 1.
      OpenMP library call suggests 4 threads.
      Hybrid MPI-OpenMP compilation detected.
      Number of MPI processes > 1.
      OMP_NUM_THREADS environment variable present and
      its value matches the one obtained from the OpenMP library call.
      Using this value as default.
      Default threads: 4
      Default applies to threads_max and threads_num_fftboxes.
      Settings in the input file override this default.
   ... done

   Running with 160 MPI processes.
   There are 10 MPI processes running on the same node as the root process.
   Each MPI process is using: 
               1 threads for simulation cell FFTs.
               1 threads for parallel FFT box operations.
               4 threads for loops over batched FFT box operations.
               4 threads in other parallel regions.
... done

Basic input checks...
Resetting ngwf_cg_rotate to TRUE for EDFT calculations
... done

Reading geometry and species blocks from file "592nano.dat" ...    
  Number of PPD points along a3 set to 1.  This is 
  the default value, it may have been provided also in the input file.
... done
 Writing xyz coordinates to file "592nano.xyz" ... done


--------------------------------------------------------------------------------
---------------------------------- INPUT FILE ----------------------------------
--------------------------------------------------------------------------------

task : singlepoint                                                              
do_properties : true                                                            
ddec_classical_hirshfeld T                                                      
dx_format T                                                                     
edft T                                                                          
edft_spin_fix 3                                                                 
output_detail VERBOSE                                                           
write_xyz T                                                                     
dispersion 4                                                                    
xc_functional PBE                                                               
cutoff_energy 830 eV                                                            
paw T                                                                           
geom_disp_tol 0.015 bohr                                                        
geom_energy_tol 1.5E-6 hartree                                                  
geom_force_tol 0.003 "ha/bohr"                                                  
EDFT_MAXIT 30                                                                   
pdos_max_l = 2                                                                  
dos_smear  0.1 eV                                                               
popn_calculate T                                                                
PDOS_PSEUDOATOMIC T                                                             
PDOS_REDUCE_SWS F                                                               
PDOS_CONSTRUCT_BASIS F                                                          
PDOS_LOWDIN T                                                                   
PDOS_ORTH_ATOM_BLOCKS F                                                         
PDOS_LCAO_OPTIMIZE F                                                            
pdos_optados_output T                                                           
homo_plot 0                                                                     
lumo_plot 0                                                                     
homo_dens_plot -1                                                               
lumo_dens_plot -1                                                               
%BLOCK SPECIES                                                                  
C C 6 4 9.0                                                                     
H H 1 1 9.0                                                                     
Li Li 3 5 9.0                                                                   
%ENDBLOCK SPECIES                                                               
%BLOCK SPECIES_POT                                                              
C "~/pp/paw/c_pbe_abinit.paw"                                                   
H "~/pp/paw/h_pbe_abinit.paw"                                                   
Li "~/pp/paw/li_pbe_abinit.paw"                                                 
%ENDBLOCK SPECIES_POT                                                           
%BLOCK SPECIES_ATOMIC_SET                                                       
C "SOLVE conf=2s2 2p2"                                                          
H "SOLVE conf=1s1"                                                              
Li "SOLVE conf=1s2 2s1 2p0"                                                     
%ENDBLOCK SPECIES_ATOMIC_SET                                                    
%BLOCK SPECIES_LDOS_GROUPS                                                      
C                                                                               
H                                                                               
Li                                                                              
%ENDBLOCK SPECIES_LDOS_GROUPS                                                   
%BLOCK LATTICE_CART                                                             
94.486315650000      0.000000000000       0.000000000000                        
0.000000000000       94.486315650000      0.000000000000                        
0.000000000000       0.000000000000       94.486315650000                       
%ENDBLOCK LATTICE_CART                                                          
%BLOCK POSITIONS_ABS                                                            
C 45.460024 50.716189 30.182464                                                 
C 45.468615 50.585751 36.271288                                                 
C 46.806478 53.062723 30.169632                                                 
C 48.171863 50.591967 36.306687                                                 
C 49.519290 48.389526 30.067935                                                 
C 49.526833 48.239212 36.253400                                                 
C 50.866015 50.735242 30.077177                                                 
C 52.233811 48.244686 36.189689                                                 
C 45.448576 55.397506 30.081780                                                 
C 45.462414 55.291392 36.317170                                                 
C 46.792546 57.735758 29.919866                                                 
C 48.172877 55.298542 36.398633                                                 
C 49.507647 53.069417 30.127127                                                 
C 49.516786 52.947104 36.388138                                                 
C 50.851358 55.413593 30.009300                                                 
C 52.211380 52.953438 36.440780                                                 
C 45.418660 50.497667 43.619047                                                 
C 45.388836 50.417681 49.646207                                                 
C 46.777997 52.844127 43.565525                                                 
C 48.093056 50.415274 49.663454                                                 
C 49.493657 48.151152 43.589127                                                 
C 49.438379 48.074094 49.737001                                                 
C 50.860381 50.506791 43.557638                                                 
C 52.135523 48.071888 49.896182                                                 
C 45.412563 55.184128 43.596333                                                 
C 45.393828 55.095908 49.746224                                                 
C 46.761786 57.525564 43.484774                                                 
C 48.095474 55.095724 49.744087                                                 
C 49.490414 52.852165 43.498642                                                 
C 49.444282 52.754990 49.709450                                                 
C 50.840729 55.185498 43.400809                                                 
C 52.141120 52.754355 49.838887                                                 
C 57.609385 48.425165 29.473707                                                 
C 57.609938 48.265744 36.406038                                                 
C 58.959727 50.774911 29.446966                                                 
C 60.318368 48.283505 36.429395                                                 
C 57.675774 48.137815 43.536949                                                 
C 57.482525 48.068945 50.513601                                                 
C 59.015232 50.505980 43.529043                                                 
C 60.187906 48.073627 50.885817                                                 
C 53.564112 50.746930 29.916860                                                 
C 53.567728 50.612365 36.364099                                                 
C 54.901274 53.092983 29.824509                                                 
C 56.268462 50.619598 36.451652                                                 
C 53.583287 50.509486 43.514507                                                 
C 53.482074 50.410315 49.961018                                                 
C 54.930959 52.863023 43.388596                                                 
C 56.168112 50.407055 50.272932                                                 
C 57.613568 43.762666 29.149001                                                 
C 57.679611 43.562282 36.276578                                                 
C 58.962932 46.084131 29.205464                                                 
C 60.429228 43.581711 36.218401                                                 
C 57.634901 43.425012 43.526568                                                 
C 57.501080 43.395267 50.694349                                                 
C 59.012060 45.783198 43.585835                                                 
C 60.197567 43.393718 51.040869                                                 
C 53.570288 46.076936 29.696909                                                 
C 53.595079 45.875521 36.277228                                                 
C 54.914541 48.413700 29.729870                                                 
C 56.306582 45.894342 36.325389                                                 
C 53.580317 45.802914 43.530770                                                 
C 53.472696 45.728750 50.102471                                                 
C 54.948034 48.146474 43.528759                                                 
C 56.156981 45.737457 50.410024                                                 
C 57.576099 57.776413 29.377929                                                 
C 57.605911 57.659335 36.434306                                                 
C 58.907280 60.137972 29.093652                                                 
C 60.341968 57.659681 36.280067                                                 
C 57.636828 57.548489 43.267538                                                 
C 57.538169 57.421685 50.393221                                                 
C 59.022933 59.925524 43.262490                                                 
C 60.260651 57.407033 50.634900                                                 
C 45.432977 64.713528 29.042070                                                 
C 45.424394 64.676710 36.200960                                                 
C 46.789939 67.054298 28.735503                                                 
C 48.136282 64.685135 36.201616                                                 
C 49.470903 62.388501 29.320755                                                 
C 49.504742 62.342410 36.357388                                                 
C 50.839701 64.752962 28.990895                                                 
C 52.227199 62.337499 36.488534                                                 
C 45.387876 64.555649 43.398347                                                 
C 45.418610 64.421060 50.559992                                                 
C 46.757645 66.941080 43.345428                                                 
C 48.108916 64.423305 50.579292                                                 
C 49.447997 62.191026 43.425634                                                 
C 49.451253 62.091337 50.346088                                                 
C 50.790898 64.559042 43.583621                                                 
C 52.133584 62.098583 50.460592                                                 
C 53.531742 60.082446 29.554783                                                 
C 53.576974 59.992571 36.495650                                                 
C 54.883554 62.451820 29.323928                                                 
C 56.264400 60.003605 36.434805                                                 
C 53.517231 59.840236 43.293529                                                 
C 53.484940 59.766099 50.261303                                                 
C 54.867503 62.187566 43.328826                                                 
C 56.203140 59.762196 50.385067                                                 
C 57.599008 53.105305 29.575619                                                 
C 57.593299 52.965928 36.546788                                                 
C 58.940004 55.464143 29.383058                                                 
C 60.312226 52.980565 36.646656                                                 
C 57.658887 52.865171 43.361657                                                 
C 57.503356 52.749334 50.422623                                                 
C 59.010608 55.209341 43.317636                                                 
C 60.218685 52.761160 50.806512                                                 
C 45.436922 60.062849 29.679022                                                 
C 45.462974 59.991352 36.320315                                                 
C 46.785325 62.388821 29.361829                                                 
C 48.145720 59.980394 36.377474                                                 
C 49.492316 57.742380 29.892085                                                 
C 49.506288 57.642593 36.448217                                                 
C 50.836025 60.078310 29.627287                                                 
C 52.218927 57.647979 36.507516                                                 
C 45.382638 59.873468 43.474587                                                 
C 45.406145 59.761481 50.072084                                                 
C 46.741771 62.210301 43.415960                                                 
C 48.101209 59.765441 50.068858                                                 
C 49.465126 57.516203 43.387659                                                 
C 49.446234 57.431226 49.898624                                                 
C 50.816546 59.861558 43.344397                                                 
C 52.143994 57.430711 49.994559                                                 
C 53.547579 55.420921 29.868007                                                 
C 53.556897 55.314553 36.504371                                                 
C 54.880080 57.768868 29.641452                                                 
C 56.257856 55.315387 36.506149                                                 
C 53.571195 55.181224 43.345247                                                 
C 53.489616 55.094841 49.966502                                                 
C 54.922542 57.526237 43.285454                                                 
C 56.180359 55.086601 50.217439                                                 
H 27.305852 41.329936 28.452682                                                 
H 28.247094 39.363418 36.069006                                                 
H 27.106921 41.095654 43.494395                                                 
H 28.188523 39.326028 50.786910                                                 
H 41.828037 30.242488 28.884632                                                 
C 42.850370 32.037452 28.950578                                                 
H 44.436679 30.058348 36.031207                                                 
H 41.735970 29.920903 43.631051                                                 
C 42.747845 31.718473 43.575077                                                 
H 44.349391 29.987057 50.974220                                                 
H 29.629225 37.239793 28.744216                                                 
C 30.657887 39.029829 28.822729                                                 
H 32.352900 37.033094 36.289620                                                 
H 33.689189 34.868959 28.993922                                                 
C 34.717808 36.657774 29.093116                                                 
H 29.467969 36.987330 43.663485                                                 
C 30.502585 38.768349 43.529761                                                 
H 32.251385 36.981899 50.824663                                                 
H 33.537547 34.617266 43.724252                                                 
C 34.566480 36.403002 43.589784                                                 
H 37.751573 32.553557 28.864221                                                 
C 38.772072 34.348793 28.982741                                                 
H 40.371016 32.420342 36.262292                                                 
H 37.603387 32.263931 43.650077                                                 
C 38.632643 34.053583 43.583291                                                 
H 40.298358 32.337049 50.925076                                                 
H 46.535080 30.282346 28.965506                                                 
H 46.482853 29.959708 43.522872                                                 
H 25.788280 48.174852 35.968668                                                 
C 27.851122 48.189348 36.057889                                                 
H 25.816860 48.076365 51.062711                                                 
C 27.877921 48.081809 50.896656                                                 
H 25.860250 43.445252 35.878242                                                 
H 27.299824 46.022031 28.517800                                                 
C 27.922470 43.467115 35.986930                                                 
H 25.824187 43.397397 50.914212                                                 
H 27.112526 45.819280 43.430508                                                 
C 27.888657 43.395769 50.831979                                                 
H 25.790956 57.653003 36.165468                                                 
H 27.235322 59.971555 28.508315                                                 
C 27.854469 57.638816 36.247822                                                 
H 25.851802 57.438298 51.262424                                                 
H 27.043329 59.804626 44.056895                                                 
C 27.915024 57.437819 51.142206                                                 
H 25.765160 52.906180 36.077206                                                 
H 27.260856 55.281909 28.606948                                                 
C 27.828449 52.910756 36.165986                                                 
H 25.814450 52.754738 51.083825                                                 
H 27.086390 55.076255 43.566516                                                 
C 27.875670 52.749822 50.935678                                                 
C 29.363824 41.318320 28.632540                                                 
C 29.259831 41.164000 36.110421                                                 
C 30.648708 43.675795 28.766268                                                 
C 31.952272 41.128537 36.196350                                                 
C 33.344110 38.948574 29.036988                                                 
C 33.363353 38.838286 36.313629                                                 
C 34.693019 41.329860 29.203578                                                 
C 36.028259 38.835712 36.543154                                                 
C 29.358738 46.018176 28.711345                                                 
C 29.163127 45.804910 36.054095                                                 
C 30.652259 48.326589 28.775518                                                 
C 31.940120 45.834896 36.167435                                                 
C 33.360557 43.664873 29.091464                                                 
C 33.309680 43.504525 36.244495                                                 
C 34.706036 46.007917 29.310536                                                 
C 36.011943 43.526134 36.353828                                                 
C 29.171329 41.086191 43.471330                                                 
C 29.208557 41.122814 50.767801                                                 
C 30.461286 43.436467 43.289408                                                 
C 31.894579 41.064553 50.677022                                                 
C 33.169987 38.695365 43.440539                                                 
C 33.277396 38.774560 50.719325                                                 
C 34.556649 41.097181 43.339255                                                 
C 35.927259 38.748556 50.785948                                                 
C 29.180141 45.800317 43.399984                                                 
C 29.171078 45.770338 50.796437                                                 
C 30.500939 48.109611 43.517311                                                 
C 31.897852 45.757210 50.578294                                                 
C 33.209929 43.446144 43.328806                                                 
C 33.242533 43.430156 50.537028                                                 
C 34.567162 45.783050 43.361391                                                 
C 35.948701 43.430379 50.355155                                                 
C 41.439308 39.021016 29.394080                                                 
C 41.434207 38.872966 36.427420                                                 
C 42.779049 41.357313 29.648564                                                 
C 44.131455 38.852887 36.500922                                                 
C 41.344485 38.747481 43.490901                                                 
C 41.352047 38.769576 50.551983                                                 
C 42.702378 41.107473 43.446857                                                 
C 44.034428 38.748786 50.400154                                                 
C 37.404174 41.332951 29.405762                                                 
C 37.380702 41.205484 36.452582                                                 
C 38.734940 43.676111 29.661441                                                 
C 40.076477 41.198980 36.447774                                                 
C 37.257904 41.102473 43.379592                                                 
C 37.296138 41.111848 50.502492                                                 
C 38.620206 43.450580 43.400769                                                 
C 39.990843 41.090598 50.335973                                                 
C 41.424902 34.327865 29.009894                                                 
C 41.417926 34.202673 36.340965                                                 
C 42.792524 36.690171 29.193656                                                 
C 44.098306 34.126402 36.445346                                                 
C 41.345697 33.981437 43.577310                                                 
C 41.338490 34.120647 50.793381                                                 
C 42.719388 36.403113 43.512400                                                 
C 44.019266 34.067691 50.893610                                                 
C 37.398372 36.612097 29.063439                                                 
C 37.406434 36.548244 36.407876                                                 
C 38.759238 38.999163 29.273699                                                 
C 40.077270 36.508810 36.253811                                                 
C 37.226473 36.350114 43.539744                                                 
C 37.314756 36.456991 50.666737                                                 
C 38.614458 38.755847 43.493671                                                 
C 39.981309 36.408640 50.841924                                                 
C 41.415237 48.363040 30.030339                                                 
C 41.395041 48.229908 36.273503                                                 
C 42.757232 50.707542 30.125471                                                 
C 44.113198 48.231165 36.174063                                                 
C 41.324672 48.136785 43.554434                                                 
C 41.335010 48.083408 49.771521                                                 
C 42.691385 50.491599 43.610676                                                 
C 44.036263 48.079278 49.688159                                                 
C 29.319014 55.302801 28.804219                                                 
C 29.112039 55.305971 36.252423                                                 
C 30.592547 57.655375 28.837827                                                 
C 31.901826 55.291976 36.291463                                                 
C 33.355853 53.018441 29.182329                                                 
C 33.246112 52.937134 36.273065                                                 
C 34.670859 55.353762 29.362015                                                 
C 35.973219 52.927709 36.316202                                                 
C 29.153855 55.110415 43.560083                                                 
C 29.184200 55.077648 50.973473                                                 
C 30.417691 57.472734 43.698544                                                 
C 31.906296 55.089450 50.739044                                                 
C 33.226787 52.809883 43.502886                                                 
C 33.253308 52.743425 50.493805                                                 
C 34.546696 55.167717 43.555129                                                 
C 35.945056 52.752300 50.188410                                                 
C 37.371083 50.689220 29.731624                                                 
C 37.324017 50.573080 36.308831                                                 
C 38.707121 53.036551 29.858295                                                 
C 40.022082 50.574051 36.299448                                                 
C 37.276262 50.477573 43.479168                                                 
C 37.287158 50.422532 50.011754                                                 
C 38.614646 52.828018 43.564605                                                 
C 39.986254 50.421516 49.816430                                                 
C 41.427418 43.685550 29.810831                                                 
C 41.421746 43.546260 36.403073                                                 
C 42.769282 46.028285 29.999411                                                 
C 44.124707 43.537351 36.398936                                                 
C 41.334370 43.438477 43.454897                                                 
C 41.336531 43.415978 50.025400                                                 
C 42.689042 45.776679 43.536457                                                 
C 44.035874 43.407295 49.922143                                                 
C 29.347019 50.659688 28.957934                                                 
C 29.118338 50.552937 36.144416                                                 
C 30.634107 53.004181 28.825648                                                 
C 31.901667 50.562950 36.226045                                                 
C 33.375413 48.334798 29.140373                                                 
C 33.272489 48.192522 36.226284                                                 
C 34.689163 50.679442 29.381931                                                 
C 35.990302 48.212036 36.292402                                                 
C 29.202970 50.449180 43.326567                                                 
C 29.162590 50.400181 50.849314                                                 
C 30.499541 52.797622 43.483087                                                 
C 31.902290 50.408035 50.586411                                                 
C 33.232286 48.126363 43.421685                                                 
C 33.248309 48.090569 50.407263                                                 
C 34.569114 50.465423 43.446229                                                 
C 35.938154 48.090002 50.141357                                                 
C 37.385138 46.008820 29.643847                                                 
C 37.343244 45.886276 36.337503                                                 
C 38.720574 48.353802 29.836401                                                 
C 40.057847 45.880467 36.350483                                                 
C 37.276461 45.778472 43.395441                                                 
C 37.287969 45.758213 50.107157                                                 
C 38.623258 48.136047 43.467100                                                 
C 39.985789 45.750067 49.931204                                                 
C 45.478670 32.058616 28.988318                                                 
C 45.479642 31.835645 36.138961                                                 
C 46.861576 34.361978 29.061393                                                 
C 48.152271 31.834389 36.064354                                                 
H 49.179920 30.058113 35.841438                                                 
H 50.582858 32.645363 28.914825                                                 
C 45.479502 36.706990 29.194869                                                 
C 45.472002 36.507460 36.490930                                                 
C 46.824881 39.056369 29.367798                                                 
C 48.181533 36.499205 36.480382                                                 
C 49.536158 34.425064 29.018486                                                 
C 49.550802 34.095369 36.282935                                                 
C 50.878154 36.712893 28.966720                                                 
C 52.236061 34.153340 36.118071                                                 
C 45.430420 31.735056 43.459259                                                 
C 45.400499 31.764416 50.859052                                                 
C 46.806153 34.045711 43.478485                                                 
C 48.016804 31.740199 50.645391                                                 
H 49.039263 29.944042 50.603977                                                 
H 50.540328 32.350007 43.222652                                                 
C 45.431189 36.422377 43.426528                                                 
C 45.382739 36.405721 50.602987                                                 
C 46.763966 38.769777 43.346268                                                 
C 48.065018 36.382653 50.492325                                                 
C 49.485348 34.128271 43.221679                                                 
C 49.429614 34.013644 50.552944                                                 
C 50.815213 36.436387 43.078976                                                 
C 52.106517 34.043147 50.415192                                                 
H 53.255466 32.365667 35.932510                                                 
H 53.129809 32.248618 50.460322                                                 
C 57.587178 39.111795 29.027970                                                 
C 57.737601 38.789676 36.058068                                                 
C 58.963186 41.415041 28.862061                                                 
C 60.399021 38.878799 36.152004                                                 
C 57.561635 38.751260 43.441853                                                 
C 57.529202 38.691576 50.774729                                                 
C 58.991752 41.020659 43.611698                                                 
C 60.200137 38.769072 50.958227                                                 
C 45.469434 46.038137 30.036080                                                 
C 45.476874 45.877024 36.294045                                                 
C 46.817221 48.380910 30.133795                                                 
C 48.188722 45.873385 36.309520                                                 
C 49.519364 43.723728 29.755943                                                 
C 49.541866 43.534207 36.385731                                                 
C 50.870666 46.061159 29.876914                                                 
C 52.253069 43.538741 36.351199                                                 
C 45.412206 45.784919 43.561245                                                 
C 45.384717 45.739279 49.750266                                                 
C 46.777772 48.147087 43.598470                                                 
C 48.085621 45.735780 49.770876                                                 
C 49.471774 43.461009 43.442554                                                 
C 49.427395 43.396729 49.940159                                                 
C 50.847524 45.797109 43.538816                                                 
C 52.118106 43.397377 50.109422                                                 
C 53.559751 41.432869 29.223066                                                 
C 53.622880 41.181154 36.335957                                                 
C 54.912671 43.752306 29.380361                                                 
C 56.335671 41.195136 36.215099                                                 
C 53.526900 41.144001 43.355582                                                 
C 53.468343 41.059658 50.338772                                                 
C 54.924400 43.449307 43.460871                                                 
C 56.172385 41.061415 50.611189                                                 
H 57.307979 34.689815 35.583576                                                 
H 58.620505 37.321736 28.924324                                                 
H 57.208843 34.605405 50.686424                                                 
H 58.530303 36.922124 43.548417                                                 
C 45.472936 41.372845 29.644092                                                 
C 45.491935 41.193446 36.485591                                                 
C 46.821803 43.708972 29.846878                                                 
C 48.182987 41.190272 36.478943                                                 
C 49.508159 39.074232 29.243951                                                 
C 49.534757 38.832506 36.489130                                                 
C 50.868036 41.401655 29.432760                                                 
C 52.252612 38.829950 36.348327                                                 
C 45.396383 41.109923 43.414739                                                 
C 45.384404 41.070011 50.092497                                                 
C 46.766749 43.450188 43.459037                                                 
C 48.076724 41.063590 50.070283                                                 
C 49.462048 38.800476 43.236553                                                 
C 49.422421 38.723979 50.279175                                                 
C 50.820745 41.128163 43.333359                                                 
C 52.124931 38.713567 50.345560                                                 
C 53.554122 36.778491 29.093068                                                 
C 53.613593 36.423289 36.119243                                                 
C 54.928232 39.067440 28.941792                                                 
C 56.304345 36.478071 35.830456                                                 
C 53.486741 36.483225 43.284565                                                 
C 53.496893 36.324652 50.488486                                                 
C 54.869803 38.787971 43.317968                                                 
C 56.168469 36.388090 50.600317                                                 
H 61.459059 37.107982 36.125371                                                 
H 62.671325 39.678822 28.763717                                                 
H 61.236376 36.981204 51.020087                                                 
H 62.682686 39.257497 44.027036                                                 
H 28.173523 61.762675 36.113996                                                 
H 28.230482 61.489072 51.363463                                                 
C 29.293758 59.997982 28.679128                                                 
C 29.195438 59.967906 36.190245                                                 
C 30.584663 62.302616 28.810864                                                 
C 31.888556 60.012446 36.313302                                                 
C 33.309056 57.683958 29.144900                                                 
C 33.258614 57.635800 36.350573                                                 
C 34.632855 60.030969 29.218671                                                 
C 35.961031 57.618046 36.374871                                                 
H 29.540549 64.081599 28.698252                                                 
H 32.286762 64.114412 36.344436                                                 
C 33.263252 62.404171 29.009372                                                 
C 33.295999 62.309718 36.297122                                                 
C 34.634621 64.713363 29.067523                                                 
C 35.979581 62.316671 36.369925                                                 
C 29.095160 59.816869 43.861391                                                 
C 29.242627 59.691325 51.201119                                                 
C 30.446043 62.164227 43.724857                                                 
C 31.919167 59.746721 51.073973                                                 
C 33.170835 57.493855 43.598233                                                 
C 33.260211 57.409012 50.753231                                                 
C 34.529206 59.854904 43.637172                                                 
C 35.963030 57.415543 50.460744                                                 
H 29.402195 63.944851 43.778230                                                 
H 32.294192 63.836855 51.268595                                                 
C 33.112239 62.251394 43.578567                                                 
C 33.297568 62.063637 50.876525                                                 
C 34.527534 64.564825 43.373020                                                 
C 35.970915 62.083702 50.842331                                                 
C 41.394236 57.722443 29.835360                                                 
C 41.386568 57.626083 36.315980                                                 
C 42.745067 60.055757 29.654178                                                 
C 44.105151 57.638088 36.305221                                                 
C 41.318058 57.533327 43.647275                                                 
C 41.348228 57.425631 50.030155                                                 
C 42.689994 59.878681 43.541915                                                 
C 44.049034 57.429068 49.911960                                                 
C 37.342342 60.045185 29.439765                                                 
C 37.338601 59.948139 36.388388                                                 
C 38.694159 62.391566 29.315515                                                 
C 40.039288 59.976306 36.374392                                                 
C 37.233965 59.871454 43.667715                                                 
C 37.320741 59.729935 50.537731                                                 
C 38.609174 62.225201 43.626007                                                 
C 40.007306 59.751700 50.330332                                                 
C 41.400279 53.044701 30.049756                                                 
C 41.380486 52.926063 36.285195                                                 
C 42.745299 55.390909 30.028982                                                 
C 44.104228 52.930328 36.292963                                                 
C 41.322154 52.834505 43.631975                                                 
C 41.338456 52.757530 49.783794                                                 
C 42.683185 55.187978 43.730753                                                 
C 44.039431 52.757441 49.691110                                                 
C 37.357403 55.374128 29.678450                                                 
C 37.300211 55.260860 36.348255                                                 
C 38.693192 57.713548 29.691139                                                 
C 40.024229 55.274029 36.311171                                                 
C 37.257454 55.183240 43.591095                                                 
C 37.294537 55.086958 50.166166                                                 
C 38.602150 57.519372 43.639411                                                 
C 39.991247 55.092941 49.954964                                                 
C 41.377128 67.079876 28.931673                                                 
C 41.366953 66.983057 36.369787                                                 
C 42.776183 69.363297 28.813098                                                 
C 44.051945 67.065756 36.117718                                                 
C 41.294665 66.970403 43.495514                                                 
C 41.375750 66.715166 50.830550                                                 
C 42.691420 69.243373 43.539671                                                 
C 44.050259 66.770704 50.760575                                                 
H 37.677862 68.842155 28.972582                                                 
H 40.311968 68.761561 36.401740                                                 
H 37.571029 68.698699 43.630316                                                 
H 40.340361 68.498631 50.994448                                                 
C 41.393771 62.385147 29.355908                                                 
C 41.394186 62.304015 36.380161                                                 
C 42.749414 64.723377 29.076328                                                 
C 44.090405 62.331652 36.295134                                                 
C 41.326059 62.225724 43.501745                                                 
C 41.376969 62.076372 50.501530                                                 
C 42.679417 64.566120 43.426392                                                 
C 44.061588 62.084996 50.347169                                                 
H 33.600835 66.496041 28.918162                                                 
H 33.501003 66.348328 43.174765                                                 
C 37.312917 64.772731 29.101039                                                 
C 37.359419 64.618827 36.383856                                                 
C 38.702381 67.049929 29.064380                                                 
C 40.034141 64.671614 36.512334                                                 
C 37.231763 64.624975 43.543899                                                 
C 37.340246 64.386942 50.776446                                                 
C 38.603155 66.906821 43.607113                                                 
C 40.032517 64.435777 50.850278                                                 
C 61.647846 41.475334 28.852120                                                 
C 61.740552 41.230844 36.172167                                                 
C 62.968395 43.742180 28.950552                                                 
H 63.803883 41.241816 36.053878                                                 
C 61.696835 46.097401 29.046895                                                 
C 61.688848 45.960843 36.421650                                                 
C 63.001731 48.439408 29.155795                                                 
H 63.755617 46.024669 36.305640                                                 
H 65.036292 43.742287 28.916412                                                 
C 61.671461 41.045847 43.853992                                                 
C 61.489184 41.048525 51.093967                                                 
C 63.045022 43.389358 43.825412                                                 
H 63.553046 41.067822 51.245260                                                 
C 61.790421 45.752985 43.695073                                                 
C 61.509324 45.748306 50.913195                                                 
C 63.101875 48.146697 43.660597                                                 
H 63.547723 45.763288 51.303225                                                 
H 65.106108 43.364324 43.931323                                                 
C 61.663763 55.467858 29.215488                                                 
C 61.631789 55.301000 36.481245                                                 
C 62.928065 57.838232 29.149822                                                 
H 63.703915 55.281750 36.423411                                                 
H 65.049697 53.158451 29.146581                                                 
C 61.787876 55.221015 43.520773                                                 
C 61.536278 55.055149 50.745096                                                 
C 63.050986 57.572812 43.733784                                                 
H 63.596063 55.044419 50.925289                                                 
H 65.134611 52.832727 43.720823                                                 
C 61.713370 50.784236 29.242254                                                 
C 61.613806 50.644140 36.416156                                                 
C 62.985789 53.138212 29.253371                                                 
H 65.065629 48.440246 29.055481                                                 
C 61.770187 50.526581 43.647033                                                 
C 61.501670 50.403236 50.860494                                                 
C 63.067878 52.851591 43.635853                                                 
H 65.171472 48.174247 43.616870                                                 
H 41.738207 71.151144 28.791534                                                 
H 44.399115 71.148422 36.147159                                                 
H 41.669489 71.035815 43.629512                                                 
H 44.394182 70.845348 50.951087                                                 
C 45.389024 69.352978 28.702898                                                 
C 45.435431 69.362633 36.174333                                                 
H 46.434762 71.134011 28.592374                                                 
C 48.117271 69.369781 36.135461                                                 
C 49.457205 67.032682 28.901432                                                 
C 49.509294 67.096836 36.162365                                                 
H 50.485962 68.820250 28.741932                                                 
C 52.208867 67.026006 36.237110                                                 
H 49.146523 71.158540 36.127710                                                 
C 45.365316 69.236480 43.491748                                                 
C 45.440927 69.065170 50.880137                                                 
H 46.400451 71.023155 43.493382                                                 
C 48.072511 69.070057 50.910529                                                 
C 49.446860 66.863895 43.494063                                                 
C 49.482812 66.774374 50.816188                                                 
H 50.491610 68.648542 43.534246                                                 
C 52.136553 66.738973 50.859565                                                 
H 49.107423 70.855592 51.010654                                                 
H 57.276862 66.496346 35.933830                                                 
H 57.218101 66.212855 50.804379                                                 
H 53.239966 68.813854 36.136371                                                 
H 53.163044 68.526905 51.022359                                                 
C 57.537043 62.424208 29.246664                                                 
C 57.659911 62.395005 36.323341                                                 
H 58.558760 64.219030 29.119154                                                 
C 60.321653 62.331692 36.339898                                                 
C 57.564839 62.195608 43.514677                                                 
C 57.564205 62.137593 50.593184                                                 
H 58.543099 64.021229 43.699747                                                 
C 60.258375 62.052535 50.664152                                                 
C 53.499564 64.723998 29.131115                                                 
C 53.610629 64.737416 36.353174                                                 
C 56.272903 64.708334 36.209946                                                 
C 53.481260 64.506701 43.391784                                                 
C 53.503709 64.475218 50.723865                                                 
C 56.186423 64.427594 50.667579                                                 
C 61.604872 60.085287 29.091019                                                 
C 61.656387 60.011829 36.274018                                                 
H 62.613940 61.891295 29.030608                                                 
H 63.720986 60.003872 36.111054                                                 
H 64.996788 57.845539 29.105079                                                 
H 61.350919 64.121267 36.313262                                                 
C 61.691847 59.895900 43.548650                                                 
C 61.558314 59.756095 50.730426                                                 
H 62.708603 61.692823 43.592087                                                 
H 63.622717 59.737481 50.817233                                                 
H 65.110043 57.598474 43.912570                                                 
H 61.293615 63.838624 50.742904                                                 
H 63.538649 50.403850 51.258676                                                 
H 36.283006 34.667791 50.792471                                                 
H 36.322052 66.152043 51.170307                                                 
H 27.133295 50.453326 43.349737                                                 
H 54.521010 66.292605 43.611536                                                 
H 63.684350 50.649153 36.389469                                                 
H 54.524382 34.688775 43.349736                                                 
H 36.372975 34.755216 36.366618                                                 
H 36.316831 66.405596 36.446851                                                 
H 54.525520 66.510003 28.947812                                                 
H 27.287631 50.651810 28.750969                                                 
H 54.588589 34.991490 28.985450                                                 
Li 58.983094 60.174732 32.928151                                                
Li 30.282619 43.398031 47.244479                                                
Li 44.030011 34.148073 32.539254                                                
Li 46.844390 67.067535 47.274309                                                
Li 60.288251 43.166260 47.156049                                                
Li 31.285061 59.921921 32.383449                                                
Li 51.396200 64.276946 32.854206                                                
Li 40.376062 65.123752 32.608035                                                
Li 60.173389 53.194802 46.929945                                                
Li 30.122387 52.810874 47.335660                                                
Li 35.590896 38.930455 46.927019                                                
Li 55.297071 38.646390 47.134617                                                
Li 36.098271 38.581131 32.648715                                                
Li 50.476030 36.384036 32.840707                                                
Li 39.927919 36.383415 46.985020                                                
Li 50.549494 36.063505 46.960332                                                
Li 54.786843 62.568957 47.129975                                                
Li 40.199439 64.677995 46.991998                                                
Li 30.468675 53.242997 32.704236                                                
Li 30.520171 48.048038 32.642209                                                
Li 31.649578 59.768245 47.174431                                                
Li 60.601317 53.383106 32.776210                                                
Li 54.626222 39.004082 32.756855                                                
Li 60.642676 48.070760 32.639307                                                
Li 46.712775 67.321097 32.653463                                                
Li 59.380540 59.762053 47.141347                                                
Li 31.354351 41.480162 32.336402                                                
Li 44.429552 33.713775 46.992234                                                
Li 59.428246 41.269192 32.722553                                                
Li 36.106940 62.179731 40.154660                                                
Li 30.379442 47.869467 39.620838                                                
Li 35.000821 63.855017 47.313946                                                
Li 50.666501 64.835156 39.735713                                                
Li 39.915861 36.284373 40.107471                                                
Li 61.052055 48.439519 40.171720                                                
Li 62.293261 48.154919 47.475001                                                
Li 55.626740 37.649562 39.657703                                                
Li 30.404443 53.078863 39.666725                                                
Li 44.081474 48.149845 40.116493                                                
Li 42.730173 55.359797 39.786553                                                
Li 35.738053 62.691241 32.584786                                                
Li 31.617806 40.834213 39.990850                                                
Li 52.178304 48.189360 40.105797                                                
Li 56.209798 63.985494 40.056032                                                
Li 43.930484 67.196466 39.995108                                                
Li 30.479095 59.500775 40.084052                                                
Li 46.909741 33.564832 39.674931                                                
Li 61.545988 57.804662 40.000558                                                
Li 60.887269 42.535796 40.111898                                                
Li 50.491920 56.990880 39.993600                                                
%ENDBLOCK POSITIONS_ABS                                                         

--------------------------------------------------------------------------------
-------------------------------- END INPUT FILE --------------------------------
--------------------------------------------------------------------------------


 
<<<<<<<<<<<<<<<<<<<<<<<<<<<<<<<<< Full system >>>>>>>>>>>>>>>>>>>>>>>>>>>>>>>>>>
<<<<<<<<<<<<<<<<<<<<<<<<<<< PAW Dataset information >>>>>>>>>>>>>>>>>>>>>>>>>>>
File: ~/pp/paw/c_pbe_abinit.paw; rc = 1.25 bohr; shape type =  3; rshape = 1.25 bohr;
  Atomic number:  6;  ionic charge:  4.000000
    Partial Wave 1: l = 0
    Partial Wave 2: l = 0
    Partial Wave 3: l = 1
    Partial Wave 4: l = 1
  Core charge supplied for Nonlinear Core Corrections
File: ~/pp/paw/h_pbe_abinit.paw; rc = 0.90 bohr; shape type =  3; rshape = 0.90 bohr;
  Atomic number:  1;  ionic charge:  1.000000
    Partial Wave 1: l = 0
    Partial Wave 2: l = 0
File: ~/pp/paw/li_pbe_abinit.paw; rc = 1.42 bohr; shape type =  3; rshape = 1.42 bohr;
  Atomic number:  3;  ionic charge:  3.000000
    Partial Wave 1: l = 0
    Partial Wave 2: l = 0
    Partial Wave 3: l = 0
    Partial Wave 4: l = 1
    Partial Wave 5: l = 1
<<<<<<<<<<<<<<<<<<<<<<<<<<<<<<<<<<<<<<< >>>>>>>>>>>>>>>>>>>>>>>>>>>>>>>>>>>>>>>

-------------------------- Atom counting information ---------------------------
Symbol    Natoms    Nngwfs    Nprojs
  C        484      1936      3872
  H        108       108       216
  Li        50       250       450
.......   ......    ......    ......
Totals:    642      2294      4538
--------------------------------------------------------------------------------

=============================== PSINC grid sizes ===============================
                      Simulation cell:  189 x 189 x 189
                              FFT-box:  117 x 117 x 117
                                  PPD:    7 x   7 x   1
Grid space d1=  0.499927596032a0 (KE cutoff=  30.39413Eh = 827.06648eV)
Grid space d2=  0.499927596032a0 (KE cutoff=  30.39413Eh = 827.06648eV)
Grid space d3=  0.499927596032a0 (KE cutoff=  30.39413Eh = 827.06648eV)
================================================================================
  
WARNING in cell_grid_distribute:
Average of less than one 23-slab per node, so workload cannot be
equally balanced between nodes.

********************* Fourier parallelisation information **********************
       Coarse grid (whole simulation cell) dimensions:    189   189   189
          Real-space ('12') slabs/node (min max mean):      1     2     1
         Recip-space ('23') slabs/node (min max mean):      0     1     0
********************************************************************************

********************* Fourier parallelisation information **********************
       Double grid (whole simulation cell) dimensions:    378   378   378
          Real-space ('12') slabs/node (min max mean):      2     3     2
         Recip-space ('23') slabs/node (min max mean):      1     2     1
********************************************************************************

Atom SCF Calculation for C  : Z (AE atom) =   6 : Z (PS atom) =   4
Config String: 2s2 2p2
Orbitals (num,occ):  2     2.00 2.00
Orbitals   (num,l):  2        0    1
Real-space Grid (nr,dr,rmax): 1377    0.0065406977    9.0000000000
Spherical Bessel Basis (nsws,lmax,cutoff):   37    2  183.0099912382
Confining potential (l,width,scale):  0    3.0000000000  100.0000000000
Confining potential (l,width,scale):  1    3.0000000000  100.0000000000
  1         -5.4350126632   -1.2715272878    4.5135247139   -1.5681949477
  2         -5.3876836850   -1.3562195125    4.4235426751   -1.5380057521
  3         -5.3928844498   -1.3758175853    4.4021699684   -1.5318377811
  4         -5.3988962903   -1.3800385428    4.3975423583   -1.5307324410
  5         -5.4018428823   -1.3823489590    4.3950111904   -1.5301555648
  6         -5.4033571720   -1.3835805046    4.3936635548   -1.5298576834
  7         -5.4041480647   -1.3842324820    4.3929512000   -1.5297032953
  8         -5.4045641108   -1.3845769138    4.3925755232   -1.5296229456
  9         -5.4047838258   -1.3847587737    4.3923775340   -1.5295810042
 10         -5.4049001347   -1.3848548089    4.3922731819   -1.5295590658
 11         -5.4049618018   -1.3849055476    4.3922181562   -1.5295475724
 12         -5.4049945351   -1.3849323732    4.3921891206   -1.5295415432
 13         -5.4050119258   -1.3849465673    4.3921737867   -1.5295383767
 14         -5.4050211723   -1.3849540841    4.3921656816   -1.5295367119
 15         -5.4050260920   -1.3849580684    4.3921613935   -1.5295358358
 16         -5.4050287113   -1.3849601822    4.3921591228   -1.5295353742
 17         -5.4050301068   -1.3849613045    4.3921579192   -1.5295351307
 18         -5.4050308507   -1.3849619010    4.3921572806   -1.5295350022
 19         -5.4050312476   -1.3849622183    4.3921569415   -1.5295349343
 20         -5.4050314594   -1.3849623873    4.3921567612   -1.5295348984
 21         -5.4050315725   -1.3849624773    4.3921566653   -1.5295348794
 22         -5.4050316330   -1.3849625253    4.3921566143   -1.5295348693
Atom SCF converged after  22 iterations to a total energy of     -5.40503163

Atom SCF Calculation for H  : Z (AE atom) =   1 : Z (PS atom) =   1
Config String: 1s1
Orbitals (num,occ):  1     1.00
Orbitals   (num,l):  1        0
Real-space Grid (nr,dr,rmax): 1377    0.0065406977    9.0000000000
Spherical Bessel Basis (nsws,lmax,cutoff):   37    1  183.0099912382
Confining potential (l,width,scale):  0    3.0000000000  100.0000000000
  1         -0.3605254152   -0.2399954029    0.2820952946   -0.2424203210
  2         -0.4156854077   -0.2398249290    0.2871789324   -0.2464796203
  3         -0.4412552402   -0.2379720642    0.2899127187   -0.2499011370
  4         -0.4517265951   -0.2371980236    0.2908966173   -0.2514141636
  5         -0.4557775773   -0.2369735141    0.2911607883   -0.2519713623
  6         -0.4573363459   -0.2369240355    0.2912108681   -0.2521663171
  7         -0.4579443228   -0.2369187864    0.2912112833   -0.2522344454
  8         -0.4581858602   -0.2369215483    0.2912049187   -0.2522587615
  9         -0.4582834939   -0.2369242589    0.2912002081   -0.2522677042
 10         -0.4583235236   -0.2369258837    0.2911975892   -0.2522710965
 11         -0.4583401154   -0.2369267223    0.2911962825   -0.2522724192
 12         -0.4583470483   -0.2369271266    0.2911956643   -0.2522729467
 13         -0.4583499624   -0.2369273145    0.2911953803   -0.2522731607
 14         -0.4583511926   -0.2369274000    0.2911952521   -0.2522732486
 15         -0.4583517136   -0.2369274385    0.2911951948   -0.2522732850
 16         -0.4583519349   -0.2369274556    0.2911951693   -0.2522733002
 17         -0.4583520290   -0.2369274632    0.2911951581   -0.2522733066
Atom SCF converged after  17 iterations to a total energy of     -0.45835203

Atom SCF Calculation for Li : Z (AE atom) =   3 : Z (PS atom) =   3
Config String: 1s2 2s1 2p0
Orbitals (num,occ):  3     2.00 1.00 0.00
Orbitals   (num,l):  3        0    0    1
Real-space Grid (nr,dr,rmax): 1377    0.0065406977    9.0000000000
Spherical Bessel Basis (nsws,lmax,cutoff):   37    2  183.0099912382
Confining potential (l,width,scale):  0    3.0000000000  100.0000000000
Confining potential (l,width,scale):  1    3.0000000000  100.0000000000
  1         -6.0640888065   -4.6655401716    2.5388576516   -0.9989538799
  2         -6.9627542978   -4.0954079129    2.9808988108   -1.1965571426
  3         -7.2692687601   -3.8889996707    3.2029735703   -1.3193883705
  4         -7.3784440298   -3.8322099748    3.2868571989   -1.3711018151
  5         -7.4170278248   -3.8191968371    3.3144974220   -1.3911175539
  6         -7.4303549880   -3.8172386945    3.3228486489   -1.3986896266
  7         -7.4348052089   -3.8175483495    3.3251259310   -1.4015352495
  8         -7.4362242328   -3.8180607346    3.3256233205   -1.4026016384
  9         -7.4366459715   -3.8184145665    3.3256561549   -1.4029998726
 10         -7.4367560626   -3.8186169740    3.3256001574   -1.4031477379
 11         -7.4367765260   -3.8187239825    3.3255481763   -1.4032021548
 12         -7.4367751741   -3.8187782620    3.3255144587   -1.4032219192
 13         -7.4367707398   -3.8188051288    3.3254952336   -1.4032289600
 14         -7.4367680349   -3.8188156035    3.3254870176   -1.4032309087
 15         -7.4367661982   -3.8188217406    3.3254819951   -1.4032318132
 16         -7.4367650112   -3.8188253257    3.3254789583   -1.4032322224
 17         -7.4367642682   -3.8188274151    3.3254771375   -1.4032324006
 18         -7.4367638134   -3.8188286307    3.3254760529   -1.4032324736
 19         -7.4367635392   -3.8188293370    3.3254754103   -1.4032325004
 20         -7.4367633760   -3.8188297469    3.3254750310   -1.4032325080
 21         -7.4367632796   -3.8188299846    3.3254748079   -1.4032325082
Atom SCF converged after  21 iterations to a total energy of     -7.43676328

Determining parallel strategy ...
... using space-filling curve
... NGWF load balancing: max     17;  min     12;  average     14
... Projector load balancing: max     34;  min     24;  average     28
... done
Calculating Ewald energy ...
              Ewald: real-space energy =   36516.307087
        Ewald: reciprocal-space energy =   37095.048620
         Ewald: (sum_charge)**2 Energy =    2952.768008
         Ewald: (sum_charge**2) Energy =     258.069285
                          Ewald Energy =   70400.518414
======================= Empirical dispersion information =======================
Model : Grimme D2
Dispersion Correction Energy: -0.25350650E+01 Hartree
================================================================================
Basis initialisation ...... NGWF spheres initialised
... Projector spheres initialised
... NGWF tight boxes initialised
... Projector tight boxes initialised
... Tight-boxes gathered
... NGWF basis size (local,global):     288118  46259714
... PAW projector initialisation
... done

============================= Charge Augmentation ==============================
                           Aug box size:   13 x  13 x  13
================================================================================

========================== Sparse matrix information ===========================
                        Overlap matrix filling:  35.86%
                        Density kernel filling: 100.00%
              NGWF-Proj overlap matrix filling:  10.11%
                    Aug Overlap matrix filling:  40.87%
                    Hamiltonian matrix filling:  40.87%
                  NGWF diagonal matrix filling:   0.17%
                             KS matrix filling: 100.00% 
                           KSKS matrix filling: 100.00% 
================================================================================

Sparse matrix initialisation ... done
NGWF initialisation ...... done
============ Calculation of NGWF S^-1 using Hotelling algorithm ================ 
         Iteration  |  Frobenius norm and Maximum abs value    (of I-S*S_n^-1)   
               1       0.47598392E+02     0.99691533E+00
               2       0.47317276E+02     0.99384882E+00
               3       0.46798420E+02     0.98776850E+00
               4       0.45903931E+02     0.97580773E+00
               5       0.44516777E+02     0.95261075E+00
               6       0.42620032E+02     0.90867413E+00
               7       0.40259623E+02     0.82856302E+00
               8       0.37465302E+02     0.79291423E+00
               9       0.34391037E+02     0.77295700E+00
              10       0.31339608E+02     0.75050716E+00
              11       0.28218821E+02     0.73467475E+00
              12       0.24405619E+02     0.70716259E+00
              13       0.19441109E+02     0.66229167E+00
              14       0.13491708E+02     0.59189671E+00
              15       0.78582514E+01     0.49083450E+00
              16       0.43068555E+01     0.43593235E+00
              17       0.26892097E+01     0.35416373E+00
              18       0.16378790E+01     0.24125013E+00
              19       0.77590538E+00     0.12054531E+00
              20       0.24343841E+00     0.48569770E-01
              21       0.36350503E-01     0.87418489E-02
              22       0.10769342E-02     0.28335059E-03
              23       0.11053041E-05     0.29770956E-06
              24       0.12234961E-11     0.33217873E-12
================================================================================
Calculating core density ...
================================= Core Density =================================
               Core den box size:   21 x  21 x  21
================================================================================
 ... done
Up spin density kernel initialisation ...... done
Down spin density kernel initialisation ...... done

Writing density kernel to file "592nano.dkn" ... done

>>> Optimising kernel for current NGWFs:

--------------------------- Ensemble-DFT optimisation --------------------------
Running ScaLAPACK on  160 processor(s).
(P)DSYGVX in subroutine dense_eigensolve returned info=    2
 ifail=           0           0
 iclustr=          14          36
 gap=  1.627715498929421E-005  4.172387606290598E-005
(P)DSYGVX in subroutine dense_eigensolve returned info=    2
 ifail=           0           0
 iclustr=          14          36
 gap=  1.627715498929406E-005  4.172387606290560E-005

--------------------------------------------------------------------------------
  Iter                              Commutator    Free_energy(A=E-TS)     DeltaA
#    0                          0.001315086619   -3194.61606089657244  -3.19E+03

Step                       =       0.381966011250
Energy                     =   -3194.574650984956
Entropy (-TS)              =      -0.041409911206
Free energy (A=E-TS)       =   -3194.616060896572
Est. 0K Energy 0.5*(E+A)   =   -3194.595355940764
Residual Non-orthogonality =       0.000000000000
Residual N_electrons       =      -0.000000000411

Spin          Integrated_Ne            Fermi_level     Delta_Fermi_level
   1      1096.999999999086        -0.224584144882             -2.25E-01
   2      1096.999999999086        -0.224584144882             -2.25E-01

                           Spin 1           |                 Spin 2           |
     Orb |    H-eigenvalues     Occupancies |    H-eigenvalues     Occupancies |
       1 |    -1.8828470811    1.0000000000 |    -1.8828470811    1.0000000000 | 
                          ------                             ------
    1093 |    -0.2302223144    0.8557454099 |    -0.2302223144    0.8557454099 | 
    1094 |    -0.2292240948    0.8123237199 |    -0.2292240948    0.8123237199 | 
    1095 |    -0.2284596911    0.7727317186 |    -0.2284596911    0.7727317186 | 
    1096 |    -0.2275660604    0.7194256635 |    -0.2275660604    0.7194256635 | 
    1097 |    -0.2239932778    0.4534895810 |    -0.2239932778    0.4534895810 | 
                 - Gap at zero temperature - |     - Gap at zero temperature -
    1098 |    -0.2235716335    0.4207425724 |    -0.2235716335    0.4207425724 | 
    1099 |    -0.2217957922    0.2930757989 |    -0.2217957922    0.2930757989 | 
    1100 |    -0.2203325422    0.2070910233 |    -0.2203325422    0.2070910233 | 
    1101 |    -0.2191251491    0.1513804691 |    -0.2191251491    0.1513804691 | 
    1102 |    -0.2181618234    0.1162933980 |    -0.2181618234    0.1162933980 | 
                          ------                             ------
    2294 |     0.5558690407    0.0000000000 |     0.5558690407    0.0000000000 | 

                       |  Abs_value |  Threshold | Converged
     Delta_Free_energy |   3.19E+03 |   1.00E-06 |        No
     Delta_Energy      |   3.19E+03 |   1.00E-04 |        No
     Delta_Entropy     |   4.14E-02 |   1.00E-04 |        No
     Commutator        |   1.32E-03 |   1.00E-05 |        No
     Delta_Fermi_level |   2.25E-01 |   1.00E-03 |        No

  Line search of the free energy minimum:
  Step_type        Step             Free_energy   Predicted_free_energy
.   Initial    0.000000    -3194.61606089657244
.    Trial1    0.381966    -3191.82979155063958
[...]
 C   197 -- C   295       -0.07      0.00      5.44895
 C    45 -- C   359       -0.07      0.00      5.44899
 C   481 -- C   489       -0.07     -0.00      5.44924
 C   201 -- C   239       -0.07     -0.00      5.45003
 C   406 -- C   440       -0.07      0.00      5.45094
 C   253 -- C   413       -0.08      0.00      5.45098
 C   323 -- C   385       -0.07      0.00      5.45161
 C   318 -- C   380       -0.07      0.00      5.45163
 C   258 -- C   288       -0.08     -0.00      5.45197
 C   357 -- C   367       -0.08      0.00      5.45267
 C   247 -- C   355       -0.07     -0.00      5.45329
 C   442 -- C   456       -0.08      0.00      5.45332
 C   423 -- Li  624       -0.05      0.00      5.45362
 C    17 -- C   281       -0.07      0.00      5.45393
 C   445 -- C   467       -0.07     -0.00      5.45397
 H   138 -- Li  620       -0.02     -0.00      5.45445
 C    21 -- C    63       -0.07      0.00      5.45471
 C   230 -- C   318       -0.07      0.00      5.45500
 C    42 -- C    60       -0.08      0.00      5.45551
 C    19 -- C   451       -0.08     -0.00      5.45626
 C   437 -- C   443       -0.08     -0.00      5.45748
 C    87 -- C    93       -0.08     -0.00      5.45749
 C   466 -- C   538       -0.08      0.00      5.45762
 H   548 -- Li  596       -0.03      0.00      5.45801
 C   117 -- C   127       -0.07     -0.00      5.45838
 C   466 -- C   476       -0.07      0.00      5.45955
 C    83 -- C    85       -0.07      0.00      5.45962
 C   231 -- C   323       -0.07     -0.00      5.46173
 C   197 -- C   199       -0.07     -0.00      5.46241
 C    71 -- C   516       -0.07     -0.00      5.46297
 C   256 -- C   290       -0.08      0.00      5.46420
 C   252 -- C   406       -0.08      0.00      5.46477
 C    83 -- C   467       -0.07     -0.00      5.46512
 C   518 -- Li  618       -0.04      0.00      5.46593
 C    37 -- C    47       -0.08     -0.00      5.46659
 C    39 -- C   516       -0.07     -0.00      5.46984
 H   151 -- Li  626       -0.03     -0.00      5.47022
 C    34 -- C    52       -0.07     -0.00      5.47026
 C   343 -- C   365       -0.07     -0.00      5.47224
 H   586 -- Li  616       -0.02      0.00      5.47390
 C    76 -- C   564       -0.06     -0.00      5.47669
 H   586 -- Li  614       -0.02      0.00      5.48044
 H   590 -- Li  599       -0.02      0.00      5.48079
 C   423 -- C   489       -0.06      0.00      5.48326
 C   324 -- Li  620       -0.05     -0.00      5.48716
 C   261 -- C   427       -0.07      0.00      5.48731
 C    55 -- C   525       -0.06      0.00      5.48732
 H   544 -- Li  596       -0.03     -0.00      5.48994
 H   146 -- Li  603       -0.02     -0.00      5.49007
 C    80 -- C   538       -0.06     -0.00      5.49042
 C   414 -- Li  638       -0.06     -0.00      5.49235
 C   188 -- C   286       -0.05     -0.00      5.49255
 C   338 -- C   380       -0.06      0.00      5.49281
 C   233 -- C   239       -0.06     -0.00      5.49324
 C   364 -- C   390       -0.06      0.00      5.49449
 Li  601 -- Li  628       -0.14      0.00      5.49467
 C   323 -- Li  608       -0.05     -0.00      5.49612
 H   177 -- Li  630       -0.02      0.00      5.49613
 C   427 -- C   445       -0.06      0.00      5.49720
 C   190 -- C   284       -0.06      0.00      5.49754
 C   254 -- C   284       -0.06      0.00      5.49799
 C    52 -- C   338       -0.07      0.00      5.49856
 H   151 -- Li  595       -0.02      0.00      5.49857
 C   343 -- C   506       -0.06      0.00      5.49858
 H   496 -- Li  621       -0.02      0.00      5.49952
 C   231 -- C   241       -0.06     -0.00      5.50106
 C   252 -- C   286       -0.05      0.00      5.50263
 C   365 -- Li  629       -0.06      0.00      5.50407
 C    14 -- Li  642       -0.07     -0.00      5.50476
 C    39 -- C   506       -0.06      0.00      5.50638
 C    71 -- C    93       -0.07      0.00      5.50645
 H   592 -- Li  615       -0.02      0.00      5.50689
 C   128 -- Li  601       -0.06     -0.00      5.50734
 H   156 -- Li  620       -0.02     -0.00      5.50868
 H   584 -- Li  602       -0.02     -0.00      5.51183
 C    29 -- Li  642       -0.07      0.00      5.51519
 H   165 -- Li  594       -0.02     -0.00      5.51890
 H   587 -- Li  604       -0.02      0.00      5.53038
 C    68 -- Li  614       -0.05      0.00      5.53474
 H   474 -- Li  610       -0.03      0.00      5.53505
 H   530 -- Li  637       -0.02      0.00      5.53573
 H   370 -- Li  621       -0.02     -0.00      5.53727
 H   561 -- Li  618       -0.02      0.00      5.53954
 H   582 -- Li  607       -0.02     -0.00      5.54305
 H   587 -- Li  608       -0.02     -0.00      5.54311
 C   127 -- Li  642       -0.09      0.00      5.54557
 C    90 -- Li  642       -0.07      0.00      5.54647
 H   400 -- Li  597       -0.02      0.00      5.55000
 C   379 -- Li  615       -0.05      0.00      5.56075
 H   171 -- Li  613       -0.02      0.00      5.56218
 Li  605 -- Li  619       -0.14      0.00      5.56837
 H   557 -- Li  593       -0.02     -0.00      5.57179
 H   519 -- Li  601       -0.03      0.00      5.57661
 H   535 -- Li  617       -0.02      0.00      5.57746
 H   584 -- Li  623       -0.02     -0.00      5.57839
 H   584 -- Li  630       -0.02      0.00      5.58197
 H   174 -- Li  611       -0.02      0.00      5.58883
 Li  599 -- Li  617       -0.16     -0.00      5.58942
 C    80 -- Li  636       -0.06      0.00      5.59500
 H   571 -- Li  593       -0.02     -0.00      5.59647
 H   168 -- Li  598       -0.02     -0.00      5.60531
 C   309 -- Li  606       -0.05      0.00      5.60680
 C    72 -- Li  601       -0.05     -0.00      5.61045
 H   162 -- Li  612       -0.02      0.00      5.61125
 H   129 -- Li  619       -0.02      0.00      5.61215
 H   578 -- Li  618       -0.02      0.00      5.61327
 C    55 -- Li  628       -0.05      0.00      5.61400
 Li  625 -- Li  636       -0.14     -0.00      5.61718
 H   589 -- Li  622       -0.02      0.00      5.62582
 H   135 -- Li  639       -0.02     -0.00      5.62923
 C   343 -- Li  604       -0.05     -0.00      5.63017
 H   505 -- Li  597       -0.02      0.00      5.63773
 H   539 -- Li  617       -0.02      0.00      5.63777
 C    39 -- Li  628       -0.05     -0.00      5.64301
 C    16 -- Li  642       -0.08     -0.00      5.64624
 C   169 -- Li  598       -0.05     -0.00      5.64933
 H   585 -- Li  625        0.00      0.00      5.65715
 H   154 -- Li  607       -0.01     -0.00      5.65989
 C   210 -- Li  603       -0.06      0.00      5.66829
=============================================================


============== Orbital energy and occupancy information for spin 1 =============

      Total number of orbitals:    2294
        Occupancy sum (kernel):    1097.000000008
   Occupancy sum (eigenvalues):    1097.000000008
                 HOMO-LUMO gap:       0.000551822 Eh
                 Mid-gap level:      -0.076075889 Eh

                        Orbital | Energy (Eh) | Occupancy
                            1    -1.845771930   1.0000000
                        .......   ...........   .........
                         1088    -0.095131974   0.9960500
                         1089    -0.094716456   0.9954895
                         1090    -0.093752326   0.9939016
                         1091    -0.092724843   0.9915914
                         1092    -0.092058323   0.9896223
                         1093    -0.080669202   0.7228243
                         1094    -0.078969562   0.6032904
                         1095    -0.077574102   0.4954453
                         1096    -0.076923281   0.4442149
                         1097    -0.076351800   0.4001098
                        ....... -- gap at 0K -- .........
                         1098    -0.075799978   0.3590240
                         1099    -0.075342866   0.3260992
                         1100    -0.074852405   0.2932865
                         1101    -0.073733820   0.2262707
                         1102    -0.073323111   0.2035788
                         1103    -0.072940835   0.1845716
                         1104    -0.072676643   0.1725440
                         1105    -0.072212585   0.1524420
                         1106    -0.071683179   0.1322912
                         1107    -0.070975200   0.1082894
                        .......   ...........   .........
                         2294     0.770480236   0.0000000

================================================================================

============== Orbital energy and occupancy information for spin 2 =============

      Total number of orbitals:    2294
        Occupancy sum (kernel):    1096.999999994
   Occupancy sum (eigenvalues):    1096.999999994
                 HOMO-LUMO gap:       0.000457112 Eh
                 Mid-gap level:      -0.075571422 Eh

                        Orbital | Energy (Eh) | Occupancy
                            1    -1.845771930   1.0000000
                        .......   ...........   .........
                         1089    -0.094716456   0.9954895
                         1090    -0.093752326   0.9939016
                         1091    -0.092724843   0.9915914
                         1092    -0.092058323   0.9896223
                         1093    -0.080669202   0.7228243
                         1094    -0.078969563   0.6032904
                         1095    -0.077574101   0.4954453
                         1096    -0.076923281   0.4442149
                         1097    -0.076351800   0.4001097
                         1098    -0.075799978   0.3590240
                        ....... -- gap at 0K -- .........
                         1099    -0.075342866   0.3260992
                         1100    -0.074852404   0.2932865
                         1101    -0.073733820   0.2262707
                         1102    -0.073323110   0.2035788
                         1103    -0.072940835   0.1845716
                         1104    -0.072676643   0.1725440
                         1105    -0.072212585   0.1524420
                         1106    -0.071683178   0.1322912
                         1107    -0.070975200   0.1082894
                         1108    -0.070851057   0.1047995
                        .......   ...........   .........
                         2294     0.770480236   0.0000000

================================================================================

===================== Writing canonical molecular orbitals =====================
    Spin 1
| Orbital  Energy (eV)  Norm     |
| HOMO     -2.07763818  1.000000 | Writing "592nano_HOMO_UP.cube" ... done
Writing "592nano_HOMO_UP.dx" ... done
| LUMO     -2.06262235  1.000000 | Writing "592nano_LUMO_UP.cube" ... done
Writing "592nano_LUMO_UP.dx" ... done
================================================================================

===================== Writing canonical molecular orbitals =====================
    Spin 2
| Orbital  Energy (eV)  Norm     |
| HOMO     -2.06262236  1.000000 | Writing "592nano_HOMO_DN.cube" ... done
Writing "592nano_HOMO_DN.dx" ... done
| LUMO     -2.05018370  1.000000 | Writing "592nano_LUMO_DN.cube" ... done
Writing "592nano_LUMO_DN.dx" ... done
================================================================================

================== Local Density of States (LDOS) calculation ==================
Writing "592nano_UP_LDOS.txt" ...  done
================================================================================

================== Local Density of States (LDOS) calculation ==================
Writing "592nano_DN_LDOS.txt" ...  done
================================================================================
 
=============== Density of States (DOS) calculation for UP spin ================
Writing "592nano_UP_DOS.txt" ...  done
================================================================================
 
============== Density of States (DOS) calculation for DOWN spin ===============
Writing "592nano_DN_DOS.txt" ...  done
================================================================================
 
Writing bands to file "592nano.val_bands" ... done
 
================ Projected Density of States (pDOS) calculation ================
 
Constructing AM resolved functions  ...... done
Writing NGWF plot files in formats: CUBE DX ...  done
 
Performing overlap integrals ...  done
 
Computing pDOS weights ...  done
 
All bands spilling parameter =   2.98 %
Occupancy-weighted spilling parameter =   0.82 %
 
 => Outputting data for OptaDOS <=
 
Writing pDOS weights to file "592nano.val_pdos_bin" ... done
 
Writing band gradients to file "592nano.val_dome_bin" ... done
 
Writing Castep output cell file to "592nano-out.cell" ... done
 
 => Computing Gaussian smeared pDOS for UP spin<= 
Writing "592nano_UP_PDOS.txt" ...  done
 
 => Computing Gaussian smeared pDOS for DOWN spin<= 
Writing "592nano_DN_PDOS.txt" ...  done
 
 => Computing Occupancy-weighted Gaussian smeared pDOS for UP spin<= 
Writing "592nano_occ_UP_PDOS.txt" ...  done
  => Band centres for UP spin channel: 
 S band centre of group 1:  -19.673058 eV
 P band centre of group 1:   -8.388289 eV
  Band centres for UP spin channel done. <= 
  => Integrated number of electrons in each AM band for UP spin channel: 
 S num electrons of group 1:  314.600040
 P num electrons of group 1:  773.421982
  Integrated number of electrons for UP spin channel done. <= 
 
 => Computing Occupancy-weighted Gaussian smeared pDOS for DOWN spin<= 
Writing "592nano_occ_DN_PDOS.txt" ...  done
  => Band centres for DOWN spin channel: 
 S band centre of group 1:  -19.673058 eV
 P band centre of group 1:   -8.388289 eV
  Band centres for DOWN spin channel done. <=
  => Integrated number of electrons in each AM band for DOWN spin channel: 
 S num electrons of group 1:  314.600040
 P num electrons of group 1:  773.421982
  Integrated number of electrons for DOWN spin channel done. <=
================================================================================

------------------------------ TIMING INFORMATION ------------------------------
AVERAGE TIME:   19497.875s on    160 node(s)                                    
TOTAL TIME:     19497.889s on    160 node(s)                                    
================= AVERAGE TIMINGS FROM ALL NODES (CUMULATIVE) ==================
|| TAG                                    #calls    cpu time   %total  Gflops ||
|| work_imbalance                       :     1        0.00s   0.000%  ------ ||
|| paw_tcore_density                    :     1        0.01s   0.000%  ------ ||
|| sparse_set_to_garbage                :   237        0.01s   0.000%  ------ ||
|| paw_sphere_density_on_grid           :     1        0.01s   0.000%  ------ ||
|| basis_extract_function_from_box      :   401        0.02s   0.000%  ------ ||
|| paw_dij_hartree                      :  1111        0.04s   0.000%  ------ ||
|| ngwfs_initialise_from_radial         :     2        0.04s   0.000%  ------ ||
|| ewald_calculate_energy               :     1        0.12s   0.001%  ------ ||
|| density_init_guess_real              :     1        0.26s   0.001%  ------ ||
|| paw_tcore_hartree_on_grid            :     1        0.38s   0.002%  ------ ||
|| paw_dataset_init                     :     3        0.51s   0.003%  ------ ||
|| pseudo_make_structure_factor         :     1        0.53s   0.003%  ------ ||
|| sparse_init                          :     1        1.01s   0.005%  ------ ||
|| dense_normal_eigensolve              :     1        1.13s   0.006%  ------ ||
|| restart_kernel_write                 :    15        1.58s   0.008%  ------ ||
|| paw_species_calc_proj_prec_mat       :     1        2.21s   0.011%  ------ ||
|| sparse_embed_hotelling_invert_embed  :    27        6.61s   0.034%  ------ ||
|| sw_init                              :     1        7.55s   0.039%  ------ ||
|| ngwf_gradient_coeffs                 :    14       10.19s   0.052%  ------ ||
|| fourier_apply_box_pair               :  1002       11.64s   0.060%  2.274k ||
|| augmentation_screen_dij              :   834       16.36s   0.084%  ------ ||
|| projectors_init_fftbox_recip         :    85       31.72s   0.163%  ------ ||
|| integrals_kinetic                    :    27       37.80s   0.194%  ------ ||
|| hartree_on_grid                      :   829       40.17s   0.206%  ------ ||
|| function_ops_brappd_ketppd           :    56       41.20s   0.211%  ------ ||
|| projectors_func_ovlp_box             :    28       41.35s   0.212%  ------ ||
|| basis_copy_function_to_box           : 32302       43.21s   0.222%  ------ ||
|| paw_dij_xc                           :  1111       51.07s   0.262%  ------ ||
|| hamiltonian_energy_components        :     3       80.57s   0.413%  ------ ||
|| eigenstates_pdos                     :     1      109.68s   0.562%  ------ ||
|| sparse_trace                         : 20800      130.77s   0.671%  ------ ||
|| augmentation_density_on_grid         :   829      133.81s   0.686%  ------ ||
|| fourier_apply_cell_forward           :  7453      139.57s   0.716% 185.869 ||
|| fourier_apply_cell_backward          :  7454      141.04s   0.723% 183.956 ||
|| aug_nonlocal_mat                     :  1097      161.46s   0.828%  ------ ||
|| restart_ngwfs_tightbox_output        :    13      173.22s   0.888%  ------ ||
|| basis_dot_function_with_box          : 6.843M     188.50s   0.967%  ------ ||
|| eigenstates_calculate                :     1      221.83s   1.138%  ------ ||
|| xc_energy_potential                  :   828      288.79s   1.481%  ------ ||
|| dense_eigensolve                     :  1596      497.72s   2.553%  ------ ||
|| sparse_product                       : 17807      521.03s   2.672%  ------ ||
|| projectors_gradient_batch            :    28      646.21s   3.314%  ------ ||
|| basis_add_function_to_box            : 20.88M     674.49s   3.459%  ------ ||
|| cell_grid_extract_box_real           : 18754      693.14s   3.555%  ------ ||
|| cell_grid_deposit_box_real           : 61439      795.58s   4.080%  ------ ||
|| projectors_grad_precond_batch        :    28      878.45s   4.505%  ------ ||
|| integrals_locpot_mat_els_batch       :  1102      927.62s   4.758%  ------ ||
|| density_fftbox_deposit_to_cell       : 28186     1373.86s   7.046%  ------ ||
|| properties_calculate                 :     1     1560.15s   8.002%  ------ ||
|| ngwf_gradient_build_batch            :    28     1689.51s   8.665%  ------ ||
|| density_batch_row_sums               :  1658     1800.30s   9.233%  ------ ||
|| ngwf_gradient_batch                  :    28     1847.99s   9.478%  ------ ||
|| edft_diag_ngwf_ham                   :  1594     1960.44s  10.055%  ------ ||
|| potential_apply_to_ngwf_batch        :  1102     2066.49s  10.599%  ------ ||
|| fourier_apply_box                    : 101.8k    2262.95s  11.606%  3.918k ||
|| ngwf_gradient_lnv                    :    14     2534.33s  12.998%  ------ ||
|| density_fftbox_interpolate_multiply  : 28186     2640.05s  13.540%  ------ ||
|| integrals_locpot_dbl_grid            :   551     3008.14s  15.428%  ------ ||
|| edft_apply_smearing_operator         :   797     3328.97s  17.074%  ------ ||
|| density_batch_interp_deposit         :  1658     4928.93s  25.279%  ------ ||
|| density_on_dbl_grid                  :   829     7046.86s  36.142%  ------ ||
|| hamiltonian_lhxc_calculate           :   824     7921.10s  40.625%  ------ ||
|| edft_calculate                       :    14    14623.17s  74.999%  ------ ||
|| ngwf_cg_optimise                     :     1    17915.60s  91.885%  ------ ||
|| total_time                           :     1    19497.87s 100.000%  ------ ||
================================================================================
Overhead of generating timer report: 
- 0 ms averaging over threads,
- 25 ms ensuring consistency across MPI ranks,
- 0 ms printing in order.

Job completed: 28-10-2020 03:13 (-0000)

