 +---------------------------------------------------------------+
 |                                                               |
 |        ####### #     # ####### ####### ####### ######         |
 |        #     # ##    # #          #    #       #     #        |
 |        #     # # #   # #          #    #       #     #        |
 |        #     # #  #  # #####      #    #####   ######         |
 |        #     # #   # # #          #    #       #              |
 |        #     # #    ## #          #    #       #              |
 |        ####### #     # #######    #    ####### #              |
 |                                                               |
 |        Linear-Scaling Ab Initio Total Energy Program          |
 |                                                               |
 |          Release for academic collaborators of ODG            |
 |                                             Version 5.3.2.12  |
 |                                                               |
 +---------------------------------------------------------------+
 |                                                               |
 |  Authors:                                                     |
 |  Jacek Dziedzic, Peter D. Haynes, Nicholas D. M. Hine,        |
 |  Arash. A. Mostofi, Mike C. Payne and Chris-Kriton Skylaris   |
 |                                                               |
 |  Contributors:                                                |
 |  J. Aarons, L. Andrinopoulos, P. W. Avraam, R. A. Bell,       |
 |  A. Bhandari, G. A. Bramley, R. J. Charlton, S. J. Clark,     |
 |  R. J. Clements, G. C. Constantinescu, F. Corsetti,           |
 |  N. Corsini, O. Dieguez, S. M. M. Dubois, K. K. B. Duff,      |
 |  J. M. Escartin, A. Greco, H. Helal, Q. O. Hill, L. P. Lee,   |
 |  J.-H. Li, E. B. Linscott, G. Moynihan, D. D. O`Regan,        |
 |  O. K. Okan, M. J. S. Phipps, C. J. Pickard,                  |
 |  J. C. A. Prentice, M. I. J. Probert, L. E. Ratcliff,         |
 |  M. Robinson, A. Ruiz Serrano, J. S. Spencer, E. W. Tait,     |
 |  G. Teobaldi, D. Turban, V. Vitale, K. A. Wilkinson,          |
 |  C. Weber, J. C. Womack, N. Yeung and T. J. Zuehlsdorff       |
 |                                                               |
 |                                   Copyright (c) 2004-2020     |
 |                                                               |
 |  Please cite:                                                 |
 |  "Introducing ONETEP: Linear-scaling density functional       |
 |   simulations on parallel computers".                         |
 |   C.-K. Skylaris, P. D. Haynes, A. A. Mostofi, M. C. Payne.   |
 |   J. Chem. Phys. 122 084119 (2005).                           |
 |                                                               |
 |          in all publications arising from your use of ONETEP. |
 |                                                               |
 +---------------------------------------------------------------+
 |                                                               |
 |   ONETEP is based on developments described in the following  |
 |   publications:                                               |
 |                                                               |
 |  "Nonorthogonal generalized Wannier function pseudopotential  |
 |   plane-wave method".                                         |
 |   C.-K. Skylaris, A. A. Mostofi, P. D. Haynes, O. Dieguez,    |
 |   M. C. Payne.                                                |
 |   Phys. Rev. B 66 035119 (2002).                              |
 |                                                               |
 |  "Preconditioned iterative minimization for linear-scaling    |
 |   electronic structure calculations".                         |
 |   A. A. Mostofi, P. D. Haynes, C.-K. Skylaris, M. C. Payne.   |
 |   J. Chem. Phys. 119(17), pp.8842-8848 (2003).                |
 |                                                               |
 |  "Total-energy calculations on a real space grid with         |
 |   localized functions and a plane-wave basis".                |
 |   A. A. Mostofi, C.-K. Skylaris, P. D. Haynes, M. C. Payne.   |
 |   Comput. Phys. Commun. 147, pp.788-802 (2002).               |
 |                                                               |
 |  "Accurate kinetic energy evaluation in electronic structure  |
 |   calculations with localized functions on real space grids"  |
 |   C.-K. Skylaris, A. A. Mostofi, P. D. Haynes, C. J. Pickard, |
 |   M. C. Payne.                                                |
 |   Comput. Phys. Commun. 140, pp.315-322 (2001).               |
 |                                                               |
 |  "Accurate ionic forces and geometry optimization in linear-  |
 |   scaling density-functional theory with local orbitals"      |
 |   N. D. M. Hine, M. Robinson, P. D. Haynes, C.-K. Skylaris,   |
 |   M. C. Payne, and A. A. Mostofi.                             |
 |   Phys. Rev. B 83 195102 (2011).                              |
 |                                                               |
 +---------------------------------------------------------------+

Job started: 25-02-2020 22:54 (-0000)
 
Reading parameters from file "3.085688_GO_manual_4x64graphite.dat" ...

WARNING: "cutoff_energy" not specified, but "psinc_spacing" specified.
         Using the latter to set the KE cutoff energy to  732.32021eV,
         thus *overriding* the default.

... done

If your calculation crashes here, before "Checking processes and threads..."
is displayed, then your stack size is insufficient.
If so, use "ulimit -s unlimited" at runtime.
You can disable this check with "check_stack_size F".

Checking processes and threads...
   Determining the default number of threads...
      No default threads set at compilation time: defaulting to 1.
      OpenMP library call suggests 4 threads.
      Hybrid MPI-OpenMP compilation detected.
      Number of MPI processes > 1.
      OMP_NUM_THREADS environment variable present and
      its value matches the one obtained from the OpenMP library call.
      Using this value as default.
      Default threads: 4
      Default applies to threads_max and threads_num_fftboxes.
      Settings in the input file override this default.
   ... done

   Running with 40 MPI processes.
   There are 10 MPI processes running on the same node as the root process.
   Each MPI process is using: 
               1 threads for simulation cell FFTs.
               1 threads for parallel FFT box operations.
               4 threads for loops over batched FFT box operations.
               4 threads in other parallel regions.
... done

Basic input checks...
Resetting ngwf_cg_rotate to TRUE for EDFT calculations
... done

Reading geometry and species blocks from file "3.085688_GO_manual_4x64graphite.dat" ...
    
  PSINC grid spacing along a1 set to   0.511215680000a0 from input file.
  PSINC grid spacing along a2 set to   0.531284090000a0 from input file.
  PSINC grid spacing along a3 set to   0.507053670000a0 from input file.
  PSINC grid spacing along a1 set to   0.511215680000a0 from input file.
  PSINC grid spacing along a2 set to   0.531284090000a0 from input file.
  PSINC grid spacing along a3 set to   0.507053670000a0 from input file.
  Number of PPD points along a3 set to 1.  This is 
  the default value, it may have been provided also in the input file.
... done
 Writing xyz coordinates to file "3.085688_GO_manual_4x64graphite.xyz" ... done


--------------------------------------------------------------------------------
---------------------------------- INPUT FILE ----------------------------------
--------------------------------------------------------------------------------

task : singlepoint                                                              
do_properties : true                                                            
dx_format T                                                                     
edft T                                                                          
output_detail VERBOSE                                                           
write_xyz T                                                                     
xc_functional VDWDF                                                             
PSINC_SPACING 0.51121568 0.53128409 0.50705367                                  
paw T                                                                           
pdos_max_l = 2                                                                  
dos_smear  0.1 eV                                                               
popn_calculate T                                                                
PDOS_PSEUDOATOMIC T                                                             
PDOS_REDUCE_SWS F                                                               
PDOS_CONSTRUCT_BASIS F                                                          
PDOS_LOWDIN T                                                                   
PDOS_ORTH_ATOM_BLOCKS F                                                         
PDOS_LCAO_OPTIMIZE F                                                            
pdos_optados_output T                                                           
homo_plot 0                                                                     
lumo_plot 0                                                                     
homo_dens_plot -1                                                               
lumo_dens_plot -1                                                               
%BLOCK SPECIES                                                                  
C C 6 4 9.0                                                                     
%ENDBLOCK SPECIES                                                               
%BLOCK SPECIES_POT                                                              
C "~/pp/paw/c_pbe_abinit.paw"                                                   
%ENDBLOCK SPECIES_POT                                                           
%BLOCK SPECIES_ATOMIC_SET                                                       
C "SOLVE conf=2s2 2p2"                                                          
%ENDBLOCK SPECIES_ATOMIC_SET                                                    
%BLOCK LATTICE_CART                                                             
32.21  0.00  0.00                                                               
0.00 18.59  0.00                                                                
0.00  0.00 58.31                                                                
%ENDBLOCK LATTICE_CART                                                          
%BLOCK POSITIONS_ABS                                                            
C  0.00  0.00  2.92                                                             
C  0.00  0.00 14.58                                                             
C  0.00  0.00 26.24                                                             
C  0.00  0.00 37.90                                                             
C  0.00  0.00 49.56                                                             
C  0.00  4.65  2.92                                                             
C  0.00  4.65 14.58                                                             
C  0.00  4.65 26.24                                                             
C  0.00  4.65 37.90                                                             
C  0.00  4.65 49.56                                                             
C  4.03  2.32  2.92                                                             
C  4.03  2.32 14.58                                                             
C  4.03  2.32 26.24                                                             
C  4.03  2.32 37.90                                                             
C  4.03  2.32 49.56                                                             
C  8.05  0.00  2.92                                                             
C  8.05  0.00 14.58                                                             
C  8.05  0.00 26.24                                                             
C  8.05  0.00 37.90                                                             
C  8.05  0.00 49.56                                                             
C  0.00  9.30  2.92                                                             
C  0.00  9.30 14.58                                                             
C  0.00  9.30 26.24                                                             
C  0.00  9.30 37.90                                                             
C  0.00  9.30 49.56                                                             
C  4.03  6.97  2.92                                                             
C  4.03  6.97 14.58                                                             
C  4.03  6.97 26.24                                                             
C  4.03  6.97 37.90                                                             
C  4.03  6.97 49.56                                                             
C  8.05  4.65  2.92                                                             
C  8.05  4.65 14.58                                                             
C  8.05  4.65 26.24                                                             
C  8.05  4.65 37.90                                                             
C  8.05  4.65 49.56                                                             
C 12.08  2.32  2.92                                                             
C 12.08  2.32 14.58                                                             
C 12.08  2.32 26.24                                                             
C 12.08  2.32 37.90                                                             
C 12.08  2.32 49.56                                                             
C 16.10  0.00  2.92                                                             
C 16.10  0.00 14.58                                                             
C 16.10  0.00 26.24                                                             
C 16.10  0.00 37.90                                                             
C 16.10  0.00 49.56                                                             
C  0.00 13.95  2.92                                                             
C  0.00 13.95 14.58                                                             
C  0.00 13.95 26.24                                                             
C  0.00 13.95 37.90                                                             
C  0.00 13.95 49.56                                                             
C  4.03 11.62  2.92                                                             
C  4.03 11.62 14.58                                                             
C  4.03 11.62 26.24                                                             
C  4.03 11.62 37.90                                                             
C  4.03 11.62 49.56                                                             
C  8.05  9.30  2.92                                                             
C  8.05  9.30 14.58                                                             
C  8.05  9.30 26.24                                                             
C  8.05  9.30 37.90                                                             
C  8.05  9.30 49.56                                                             
C 12.08  6.97  2.92                                                             
C 12.08  6.97 14.58                                                             
C 12.08  6.97 26.24                                                             
C 12.08  6.97 37.90                                                             
C 12.08  6.97 49.56                                                             
C 16.10  4.65  2.92                                                             
C 16.10  4.65 14.58                                                             
C 16.10  4.65 26.24                                                             
C 16.10  4.65 37.90                                                             
C 16.10  4.65 49.56                                                             
C 20.13  2.32  2.92                                                             
C 20.13  2.32 14.58                                                             
C 20.13  2.32 26.24                                                             
C 20.13  2.32 37.90                                                             
C 20.13  2.32 49.56                                                             
C 24.16  0.00  2.92                                                             
C 24.16  0.00 14.58                                                             
C 24.16  0.00 26.24                                                             
C 24.16  0.00 37.90                                                             
C 24.16  0.00 49.56                                                             
C  4.03 16.27  2.92                                                             
C  4.03 16.27 14.58                                                             
C  4.03 16.27 26.24                                                             
C  4.03 16.27 37.90                                                             
C  4.03 16.27 49.56                                                             
C  8.05 13.95  2.92                                                             
C  8.05 13.95 14.58                                                             
C  8.05 13.95 26.24                                                             
C  8.05 13.95 37.90                                                             
C  8.05 13.95 49.56                                                             
C 12.08 11.62  2.92                                                             
C 12.08 11.62 14.58                                                             
C 12.08 11.62 26.24                                                             
C 12.08 11.62 37.90                                                             
C 12.08 11.62 49.56                                                             
C 16.10  9.30  2.92                                                             
C 16.10  9.30 14.58                                                             
C 16.10  9.30 26.24                                                             
C 16.10  9.30 37.90                                                             
C 16.10  9.30 49.56                                                             
C 20.13  6.97  2.92                                                             
C 20.13  6.97 14.58                                                             
C 20.13  6.97 26.24                                                             
C 20.13  6.97 37.90                                                             
C 20.13  6.97 49.56                                                             
C 24.16  4.65  2.92                                                             
C 24.16  4.65 14.58                                                             
C 24.16  4.65 26.24                                                             
C 24.16  4.65 37.90                                                             
C 24.16  4.65 49.56                                                             
C 28.18  2.32  2.92                                                             
C 28.18  2.32 14.58                                                             
C 28.18  2.32 26.24                                                             
C 28.18  2.32 37.90                                                             
C 28.18  2.32 49.56                                                             
C 12.08 16.27  2.92                                                             
C 12.08 16.27 14.58                                                             
C 12.08 16.27 26.24                                                             
C 12.08 16.27 37.90                                                             
C 12.08 16.27 49.56                                                             
C 16.10 13.95  2.92                                                             
C 16.10 13.95 14.58                                                             
C 16.10 13.95 26.24                                                             
C 16.10 13.95 37.90                                                             
C 16.10 13.95 49.56                                                             
C 20.13 11.62  2.92                                                             
C 20.13 11.62 14.58                                                             
C 20.13 11.62 26.24                                                             
C 20.13 11.62 37.90                                                             
C 20.13 11.62 49.56                                                             
C 24.16  9.30  2.92                                                             
C 24.16  9.30 14.58                                                             
C 24.16  9.30 26.24                                                             
C 24.16  9.30 37.90                                                             
C 24.16  9.30 49.56                                                             
C 28.18  6.97  2.92                                                             
C 28.18  6.97 14.58                                                             
C 28.18  6.97 26.24                                                             
C 28.18  6.97 37.90                                                             
C 28.18  6.97 49.56                                                             
C 20.13 16.27  2.92                                                             
C 20.13 16.27 14.58                                                             
C 20.13 16.27 26.24                                                             
C 20.13 16.27 37.90                                                             
C 20.13 16.27 49.56                                                             
C 24.16 13.95  2.92                                                             
C 24.16 13.95 14.58                                                             
C 24.16 13.95 26.24                                                             
C 24.16 13.95 37.90                                                             
C 24.16 13.95 49.56                                                             
C 28.18 11.62  2.92                                                             
C 28.18 11.62 14.58                                                             
C 28.18 11.62 26.24                                                             
C 28.18 11.62 37.90                                                             
C 28.18 11.62 49.56                                                             
C 28.18 16.27  2.92                                                             
C 28.18 16.27 14.58                                                             
C 28.18 16.27 26.24                                                             
C 28.18 16.27 37.90                                                             
C 28.18 16.27 49.56                                                             
C  0.00  0.00  8.75                                                             
C  0.00  0.00 20.41                                                             
C  0.00  0.00 32.07                                                             
C  0.00  0.00 43.73                                                             
C  0.00  0.00 55.40                                                             
C  0.00  4.65  8.75                                                             
C  0.00  4.65 20.41                                                             
C  0.00  4.65 32.07                                                             
C  0.00  4.65 43.73                                                             
C  0.00  4.65 55.40                                                             
C  4.03  2.32  8.75                                                             
C  4.03  2.32 20.41                                                             
C  4.03  2.32 32.07                                                             
C  4.03  2.32 43.73                                                             
C  4.03  2.32 55.40                                                             
C  8.05  0.00  8.75                                                             
C  8.05  0.00 20.41                                                             
C  8.05  0.00 32.07                                                             
C  8.05  0.00 43.73                                                             
C  8.05  0.00 55.40                                                             
C  0.00  9.30  8.75                                                             
C  0.00  9.30 20.41                                                             
C  0.00  9.30 32.07                                                             
C  0.00  9.30 43.73                                                             
C  0.00  9.30 55.40                                                             
C  4.03  6.97  8.75                                                             
C  4.03  6.97 20.41                                                             
C  4.03  6.97 32.07                                                             
C  4.03  6.97 43.73                                                             
C  4.03  6.97 55.40                                                             
C  8.05  4.65  8.75                                                             
C  8.05  4.65 20.41                                                             
C  8.05  4.65 32.07                                                             
C  8.05  4.65 43.73                                                             
C  8.05  4.65 55.40                                                             
C 12.08  2.32  8.75                                                             
C 12.08  2.32 20.41                                                             
C 12.08  2.32 32.07                                                             
C 12.08  2.32 43.73                                                             
C 12.08  2.32 55.40                                                             
C 16.10  0.00  8.75                                                             
C 16.10  0.00 20.41                                                             
C 16.10  0.00 32.07                                                             
C 16.10  0.00 43.73                                                             
C 16.10  0.00 55.40                                                             
C  0.00 13.95  8.75                                                             
C  0.00 13.95 20.41                                                             
C  0.00 13.95 32.07                                                             
C  0.00 13.95 43.73                                                             
C  0.00 13.95 55.40                                                             
C  4.03 11.62  8.75                                                             
C  4.03 11.62 20.41                                                             
C  4.03 11.62 32.07                                                             
C  4.03 11.62 43.73                                                             
C  4.03 11.62 55.40                                                             
C  8.05  9.30  8.75                                                             
C  8.05  9.30 20.41                                                             
C  8.05  9.30 32.07                                                             
C  8.05  9.30 43.73                                                             
C  8.05  9.30 55.40                                                             
C 12.08  6.97  8.75                                                             
C 12.08  6.97 20.41                                                             
C 12.08  6.97 32.07                                                             
C 12.08  6.97 43.73                                                             
C 12.08  6.97 55.40                                                             
C 16.10  4.65  8.75                                                             
C 16.10  4.65 20.41                                                             
C 16.10  4.65 32.07                                                             
C 16.10  4.65 43.73                                                             
C 16.10  4.65 55.40                                                             
C 20.13  2.32  8.75                                                             
C 20.13  2.32 20.41                                                             
C 20.13  2.32 32.07                                                             
C 20.13  2.32 43.73                                                             
C 20.13  2.32 55.40                                                             
C 24.16  0.00  8.75                                                             
C 24.16  0.00 20.41                                                             
C 24.16  0.00 32.07                                                             
C 24.16  0.00 43.73                                                             
C 24.16  0.00 55.40                                                             
C  4.03 16.27  8.75                                                             
C  4.03 16.27 20.41                                                             
C  4.03 16.27 32.07                                                             
C  4.03 16.27 43.73                                                             
C  4.03 16.27 55.40                                                             
C  8.05 13.95  8.75                                                             
C  8.05 13.95 20.41                                                             
C  8.05 13.95 32.07                                                             
C  8.05 13.95 43.73                                                             
C  8.05 13.95 55.40                                                             
C 12.08 11.62  8.75                                                             
C 12.08 11.62 20.41                                                             
C 12.08 11.62 32.07                                                             
C 12.08 11.62 43.73                                                             
C 12.08 11.62 55.40                                                             
C 16.10  9.30  8.75                                                             
C 16.10  9.30 20.41                                                             
C 16.10  9.30 32.07                                                             
C 16.10  9.30 43.73                                                             
C 16.10  9.30 55.40                                                             
C 20.13  6.97  8.75                                                             
C 20.13  6.97 20.41                                                             
C 20.13  6.97 32.07                                                             
C 20.13  6.97 43.73                                                             
C 20.13  6.97 55.40                                                             
C 24.16  4.65  8.75                                                             
C 24.16  4.65 20.41                                                             
C 24.16  4.65 32.07                                                             
C 24.16  4.65 43.73                                                             
C 24.16  4.65 55.40                                                             
C 28.18  2.32  8.75                                                             
C 28.18  2.32 20.41                                                             
C 28.18  2.32 32.07                                                             
C 28.18  2.32 43.73                                                             
C 28.18  2.32 55.40                                                             
C 12.08 16.27  8.75                                                             
C 12.08 16.27 20.41                                                             
C 12.08 16.27 32.07                                                             
C 12.08 16.27 43.73                                                             
C 12.08 16.27 55.40                                                             
C 16.10 13.95  8.75                                                             
C 16.10 13.95 20.41                                                             
C 16.10 13.95 32.07                                                             
C 16.10 13.95 43.73                                                             
C 16.10 13.95 55.40                                                             
C 20.13 11.62  8.75                                                             
C 20.13 11.62 20.41                                                             
C 20.13 11.62 32.07                                                             
C 20.13 11.62 43.73                                                             
C 20.13 11.62 55.40                                                             
C 24.16  9.30  8.75                                                             
C 24.16  9.30 20.41                                                             
C 24.16  9.30 32.07                                                             
C 24.16  9.30 43.73                                                             
C 24.16  9.30 55.40                                                             
C 28.18  6.97  8.75                                                             
C 28.18  6.97 20.41                                                             
C 28.18  6.97 32.07                                                             
C 28.18  6.97 43.73                                                             
C 28.18  6.97 55.40                                                             
C 20.13 16.27  8.75                                                             
C 20.13 16.27 20.41                                                             
C 20.13 16.27 32.07                                                             
C 20.13 16.27 43.73                                                             
C 20.13 16.27 55.40                                                             
C 24.16 13.95  8.75                                                             
C 24.16 13.95 20.41                                                             
C 24.16 13.95 32.07                                                             
C 24.16 13.95 43.73                                                             
C 24.16 13.95 55.40                                                             
C 28.18 11.62  8.75                                                             
C 28.18 11.62 20.41                                                             
C 28.18 11.62 32.07                                                             
C 28.18 11.62 43.73                                                             
C 28.18 11.62 55.40                                                             
C 28.18 16.27  8.75                                                             
C 28.18 16.27 20.41                                                             
C 28.18 16.27 32.07                                                             
C 28.18 16.27 43.73                                                             
C 28.18 16.27 55.40                                                             
C  1.34  2.32  2.92                                                             
C  1.34  2.32 14.58                                                             
C  1.34  2.32 26.24                                                             
C  1.34  2.32 37.90                                                             
C  1.34  2.32 49.56                                                             
C  5.37  0.00  2.92                                                             
C  5.37  0.00 14.58                                                             
C  5.37  0.00 26.24                                                             
C  5.37  0.00 37.90                                                             
C  5.37  0.00 49.56                                                             
C  1.34  6.97  2.92                                                             
C  1.34  6.97 14.58                                                             
C  1.34  6.97 26.24                                                             
C  1.34  6.97 37.90                                                             
C  1.34  6.97 49.56                                                             
C  5.37  4.65  2.92                                                             
C  5.37  4.65 14.58                                                             
C  5.37  4.65 26.24                                                             
C  5.37  4.65 37.90                                                             
C  5.37  4.65 49.56                                                             
C  9.39  2.32  2.92                                                             
C  9.39  2.32 14.58                                                             
C  9.39  2.32 26.24                                                             
C  9.39  2.32 37.90                                                             
C  9.39  2.32 49.56                                                             
C 13.42  0.00  2.92                                                             
C 13.42  0.00 14.58                                                             
C 13.42  0.00 26.24                                                             
C 13.42  0.00 37.90                                                             
C 13.42  0.00 49.56                                                             
C  1.34 11.62  2.92                                                             
C  1.34 11.62 14.58                                                             
C  1.34 11.62 26.24                                                             
C  1.34 11.62 37.90                                                             
C  1.34 11.62 49.56                                                             
C  5.37  9.30  2.92                                                             
C  5.37  9.30 14.58                                                             
C  5.37  9.30 26.24                                                             
C  5.37  9.30 37.90                                                             
C  5.37  9.30 49.56                                                             
C  9.39  6.97  2.92                                                             
C  9.39  6.97 14.58                                                             
C  9.39  6.97 26.24                                                             
C  9.39  6.97 37.90                                                             
C  9.39  6.97 49.56                                                             
C 13.42  4.65  2.92                                                             
C 13.42  4.65 14.58                                                             
C 13.42  4.65 26.24                                                             
C 13.42  4.65 37.90                                                             
C 13.42  4.65 49.56                                                             
C 17.45  2.32  2.92                                                             
C 17.45  2.32 14.58                                                             
C 17.45  2.32 26.24                                                             
C 17.45  2.32 37.90                                                             
C 17.45  2.32 49.56                                                             
C 21.47  0.00  2.92                                                             
C 21.47  0.00 14.58                                                             
C 21.47  0.00 26.24                                                             
C 21.47  0.00 37.90                                                             
C 21.47  0.00 49.56                                                             
C  1.34 16.27  2.92                                                             
C  1.34 16.27 14.58                                                             
C  1.34 16.27 26.24                                                             
C  1.34 16.27 37.90                                                             
C  1.34 16.27 49.56                                                             
C  5.37 13.95  2.92                                                             
C  5.37 13.95 14.58                                                             
C  5.37 13.95 26.24                                                             
C  5.37 13.95 37.90                                                             
C  5.37 13.95 49.56                                                             
C  9.39 11.62  2.92                                                             
C  9.39 11.62 14.58                                                             
C  9.39 11.62 26.24                                                             
C  9.39 11.62 37.90                                                             
C  9.39 11.62 49.56                                                             
C 13.42  9.30  2.92                                                             
C 13.42  9.30 14.58                                                             
C 13.42  9.30 26.24                                                             
C 13.42  9.30 37.90                                                             
C 13.42  9.30 49.56                                                             
C 17.45  6.97  2.92                                                             
C 17.45  6.97 14.58                                                             
C 17.45  6.97 26.24                                                             
C 17.45  6.97 37.90                                                             
C 17.45  6.97 49.56                                                             
C 21.47  4.65  2.92                                                             
C 21.47  4.65 14.58                                                             
C 21.47  4.65 26.24                                                             
C 21.47  4.65 37.90                                                             
C 21.47  4.65 49.56                                                             
C 25.50  2.32  2.92                                                             
C 25.50  2.32 14.58                                                             
C 25.50  2.32 26.24                                                             
C 25.50  2.32 37.90                                                             
C 25.50  2.32 49.56                                                             
C 29.52  0.00  2.92                                                             
C 29.52  0.00 14.58                                                             
C 29.52  0.00 26.24                                                             
C 29.52  0.00 37.90                                                             
C 29.52  0.00 49.56                                                             
C  9.39 16.27  2.92                                                             
C  9.39 16.27 14.58                                                             
C  9.39 16.27 26.24                                                             
C  9.39 16.27 37.90                                                             
C  9.39 16.27 49.56                                                             
C 13.42 13.95  2.92                                                             
C 13.42 13.95 14.58                                                             
C 13.42 13.95 26.24                                                             
C 13.42 13.95 37.90                                                             
C 13.42 13.95 49.56                                                             
C 17.45 11.62  2.92                                                             
C 17.45 11.62 14.58                                                             
C 17.45 11.62 26.24                                                             
C 17.45 11.62 37.90                                                             
C 17.45 11.62 49.56                                                             
C 21.47  9.30  2.92                                                             
C 21.47  9.30 14.58                                                             
C 21.47  9.30 26.24                                                             
C 21.47  9.30 37.90                                                             
C 21.47  9.30 49.56                                                             
C 25.50  6.97  2.92                                                             
C 25.50  6.97 14.58                                                             
C 25.50  6.97 26.24                                                             
C 25.50  6.97 37.90                                                             
C 25.50  6.97 49.56                                                             
C 29.52  4.65  2.92                                                             
C 29.52  4.65 14.58                                                             
C 29.52  4.65 26.24                                                             
C 29.52  4.65 37.90                                                             
C 29.52  4.65 49.56                                                             
C 17.45 16.27  2.92                                                             
C 17.45 16.27 14.58                                                             
C 17.45 16.27 26.24                                                             
C 17.45 16.27 37.90                                                             
C 17.45 16.27 49.56                                                             
C 21.47 13.95  2.92                                                             
C 21.47 13.95 14.58                                                             
C 21.47 13.95 26.24                                                             
C 21.47 13.95 37.90                                                             
C 21.47 13.95 49.56                                                             
C 25.50 11.62  2.92                                                             
C 25.50 11.62 14.58                                                             
C 25.50 11.62 26.24                                                             
C 25.50 11.62 37.90                                                             
C 25.50 11.62 49.56                                                             
C 29.52  9.30  2.92                                                             
C 29.52  9.30 14.58                                                             
C 29.52  9.30 26.24                                                             
C 29.52  9.30 37.90                                                             
C 29.52  9.30 49.56                                                             
C 25.50 16.27  2.92                                                             
C 25.50 16.27 14.58                                                             
C 25.50 16.27 26.24                                                             
C 25.50 16.27 37.90                                                             
C 25.50 16.27 49.56                                                             
C 29.52 13.95  2.92                                                             
C 29.52 13.95 14.58                                                             
C 29.52 13.95 26.24                                                             
C 29.52 13.95 37.90                                                             
C 29.52 13.95 49.56                                                             
C  2.68  0.00  8.75                                                             
C  2.68  0.00 20.41                                                             
C  2.68  0.00 32.07                                                             
C  2.68  0.00 43.73                                                             
C  2.68  0.00 55.40                                                             
C  2.68  4.65  8.75                                                             
C  2.68  4.65 20.41                                                             
C  2.68  4.65 32.07                                                             
C  2.68  4.65 43.73                                                             
C  2.68  4.65 55.40                                                             
C  6.71  2.32  8.75                                                             
C  6.71  2.32 20.41                                                             
C  6.71  2.32 32.07                                                             
C  6.71  2.32 43.73                                                             
C  6.71  2.32 55.40                                                             
C 10.74  0.00  8.75                                                             
C 10.74  0.00 20.41                                                             
C 10.74  0.00 32.07                                                             
C 10.74  0.00 43.73                                                             
C 10.74  0.00 55.40                                                             
C  2.68  9.30  8.75                                                             
C  2.68  9.30 20.41                                                             
C  2.68  9.30 32.07                                                             
C  2.68  9.30 43.73                                                             
C  2.68  9.30 55.40                                                             
C  6.71  6.97  8.75                                                             
C  6.71  6.97 20.41                                                             
C  6.71  6.97 32.07                                                             
C  6.71  6.97 43.73                                                             
C  6.71  6.97 55.40                                                             
C 10.74  4.65  8.75                                                             
C 10.74  4.65 20.41                                                             
C 10.74  4.65 32.07                                                             
C 10.74  4.65 43.73                                                             
C 10.74  4.65 55.40                                                             
C 14.76  2.32  8.75                                                             
C 14.76  2.32 20.41                                                             
C 14.76  2.32 32.07                                                             
C 14.76  2.32 43.73                                                             
C 14.76  2.32 55.40                                                             
C 18.79  0.00  8.75                                                             
C 18.79  0.00 20.41                                                             
C 18.79  0.00 32.07                                                             
C 18.79  0.00 43.73                                                             
C 18.79  0.00 55.40                                                             
C  2.68 13.95  8.75                                                             
C  2.68 13.95 20.41                                                             
C  2.68 13.95 32.07                                                             
C  2.68 13.95 43.73                                                             
C  2.68 13.95 55.40                                                             
C  6.71 11.62  8.75                                                             
C  6.71 11.62 20.41                                                             
C  6.71 11.62 32.07                                                             
C  6.71 11.62 43.73                                                             
C  6.71 11.62 55.40                                                             
C 10.74  9.30  8.75                                                             
C 10.74  9.30 20.41                                                             
C 10.74  9.30 32.07                                                             
C 10.74  9.30 43.73                                                             
C 10.74  9.30 55.40                                                             
C 14.76  6.97  8.75                                                             
C 14.76  6.97 20.41                                                             
C 14.76  6.97 32.07                                                             
C 14.76  6.97 43.73                                                             
C 14.76  6.97 55.40                                                             
C 18.79  4.65  8.75                                                             
C 18.79  4.65 20.41                                                             
C 18.79  4.65 32.07                                                             
C 18.79  4.65 43.73                                                             
C 18.79  4.65 55.40                                                             
C 22.81  2.32  8.75                                                             
C 22.81  2.32 20.41                                                             
C 22.81  2.32 32.07                                                             
C 22.81  2.32 43.73                                                             
C 22.81  2.32 55.40                                                             
C 26.84  0.00  8.75                                                             
C 26.84  0.00 20.41                                                             
C 26.84  0.00 32.07                                                             
C 26.84  0.00 43.73                                                             
C 26.84  0.00 55.40                                                             
C  6.71 16.27  8.75                                                             
C  6.71 16.27 20.41                                                             
C  6.71 16.27 32.07                                                             
C  6.71 16.27 43.73                                                             
C  6.71 16.27 55.40                                                             
C 10.74 13.95  8.75                                                             
C 10.74 13.95 20.41                                                             
C 10.74 13.95 32.07                                                             
C 10.74 13.95 43.73                                                             
C 10.74 13.95 55.40                                                             
C 14.76 11.62  8.75                                                             
C 14.76 11.62 20.41                                                             
C 14.76 11.62 32.07                                                             
C 14.76 11.62 43.73                                                             
C 14.76 11.62 55.40                                                             
C 18.79  9.30  8.75                                                             
C 18.79  9.30 20.41                                                             
C 18.79  9.30 32.07                                                             
C 18.79  9.30 43.73                                                             
C 18.79  9.30 55.40                                                             
C 22.81  6.97  8.75                                                             
C 22.81  6.97 20.41                                                             
C 22.81  6.97 32.07                                                             
C 22.81  6.97 43.73                                                             
C 22.81  6.97 55.40                                                             
C 26.84  4.65  8.75                                                             
C 26.84  4.65 20.41                                                             
C 26.84  4.65 32.07                                                             
C 26.84  4.65 43.73                                                             
C 26.84  4.65 55.40                                                             
C 30.86  2.32  8.75                                                             
C 30.86  2.32 20.41                                                             
C 30.86  2.32 32.07                                                             
C 30.86  2.32 43.73                                                             
C 30.86  2.32 55.40                                                             
C 14.76 16.27  8.75                                                             
C 14.76 16.27 20.41                                                             
C 14.76 16.27 32.07                                                             
C 14.76 16.27 43.73                                                             
C 14.76 16.27 55.40                                                             
C 18.79 13.95  8.75                                                             
C 18.79 13.95 20.41                                                             
C 18.79 13.95 32.07                                                             
C 18.79 13.95 43.73                                                             
C 18.79 13.95 55.40                                                             
C 22.81 11.62  8.75                                                             
C 22.81 11.62 20.41                                                             
C 22.81 11.62 32.07                                                             
C 22.81 11.62 43.73                                                             
C 22.81 11.62 55.40                                                             
C 26.84  9.30  8.75                                                             
C 26.84  9.30 20.41                                                             
C 26.84  9.30 32.07                                                             
C 26.84  9.30 43.73                                                             
C 26.84  9.30 55.40                                                             
C 30.86  6.97  8.75                                                             
C 30.86  6.97 20.41                                                             
C 30.86  6.97 32.07                                                             
C 30.86  6.97 43.73                                                             
C 30.86  6.97 55.40                                                             
C 22.81 16.27  8.75                                                             
C 22.81 16.27 20.41                                                             
C 22.81 16.27 32.07                                                             
C 22.81 16.27 43.73                                                             
C 22.81 16.27 55.40                                                             
C 26.84 13.95  8.75                                                             
C 26.84 13.95 20.41                                                             
C 26.84 13.95 32.07                                                             
C 26.84 13.95 43.73                                                             
C 26.84 13.95 55.40                                                             
C 30.86 11.62  8.75                                                             
C 30.86 11.62 20.41                                                             
C 30.86 11.62 32.07                                                             
C 30.86 11.62 43.73                                                             
C 30.86 11.62 55.40                                                             
C 30.86 16.27  8.75                                                             
C 30.86 16.27 20.41                                                             
C 30.86 16.27 32.07                                                             
C 30.86 16.27 43.73                                                             
C 30.86 16.27 55.40                                                             
%ENDBLOCK POSITIONS_ABS                                                         

--------------------------------------------------------------------------------
-------------------------------- END INPUT FILE --------------------------------
--------------------------------------------------------------------------------


 
<<<<<<<<<<<<<<<<<<<<<<<<<<<<<<<<< Full system >>>>>>>>>>>>>>>>>>>>>>>>>>>>>>>>>>
<<<<<<<<<<<<<<<<<<<<<<<<<<< PAW Dataset information >>>>>>>>>>>>>>>>>>>>>>>>>>>
File: ~/pp/paw/c_pbe_abinit.paw; rc = 1.25 bohr; shape type =  3; rshape = 1.25 bohr;
  Atomic number:  6;  ionic charge:  4.000000
    Partial Wave 1: l = 0
    Partial Wave 2: l = 0
    Partial Wave 3: l = 1
    Partial Wave 4: l = 1
  Core charge supplied for Nonlinear Core Corrections
<<<<<<<<<<<<<<<<<<<<<<<<<<<<<<<<<<<<<<< >>>>>>>>>>>>>>>>>>>>>>>>>>>>>>>>>>>>>>>

-------------------------- Atom counting information ---------------------------
Symbol    Natoms    Nngwfs    Nprojs
  C        640      2560      5120
.......   ......    ......    ......
Totals:    640      2560      5120
--------------------------------------------------------------------------------

=============================== PSINC grid sizes ===============================
                      Simulation cell:   63 x  35 x 115
                              FFT-box:   63 x  35 x 111
                                  PPD:    7 x   5 x   1
Grid space d1=  0.511269841270a0 (KE cutoff=  29.06054Eh = 790.77748eV)
Grid space d2=  0.531142857143a0 (KE cutoff=  26.92659Eh = 732.70972eV)
Grid space d3=  0.507043478261a0 (KE cutoff=  29.54701Eh = 804.01516eV)
================================================================================
  
WARNING in cell_grid_distribute:
Average of less than one 23-slab per node, so workload cannot be
equally balanced between nodes.

********************* Fourier parallelisation information **********************
       Coarse grid (whole simulation cell) dimensions:     63    35   115
          Real-space ('12') slabs/node (min max mean):      2     3     2
         Recip-space ('23') slabs/node (min max mean):      0     1     0
********************************************************************************

********************* Fourier parallelisation information **********************
       Double grid (whole simulation cell) dimensions:    126    70   230
          Real-space ('12') slabs/node (min max mean):      5     6     5
         Recip-space ('23') slabs/node (min max mean):      1     2     1
********************************************************************************

Atom SCF Calculation for C  : Z (AE atom) =   6 : Z (PS atom) =   4
Config String: 2s2 2p2
Orbitals (num,occ):  2     2.00 2.00
Orbitals   (num,l):  2        0    1
Real-space Grid (nr,dr,rmax): 1293    0.0069659443    9.0000000000
Spherical Bessel Basis (nsws,lmax,cutoff):   37    2  161.4736382572
Confining potential (l,width,scale):  0    3.0000000000  100.0000000000
Confining potential (l,width,scale):  1    3.0000000000  100.0000000000
  1         -5.4966243538   -1.3415066196    4.5135257941   -1.6613421942
  2         -5.4660395227   -1.4172174419    4.4326892861   -1.6365362708
  3         -5.4759582348   -1.4337557188    4.4144498970   -1.6324663609
  4         -5.4843804720   -1.4365219414    4.4114201180   -1.6322033818
  5         -5.4882713954   -1.4381734139    4.4096331461   -1.6320227940
  6         -5.4902132675   -1.4390636620    4.4086785626   -1.6319270645
  7         -5.4912093711   -1.4395303631    4.4081823351   -1.6318789226
  8         -5.4917264140   -1.4397726342    4.4079268833   -1.6318551036
  9         -5.4919964206   -1.4398979410    4.4077958777   -1.6318434025
 10         -5.4921379132   -1.4399626875    4.4077287721   -1.6318376788
 11         -5.4922122245   -1.4399961532    4.4076943935   -1.6318348878
 12         -5.4922513136   -1.4400134684    4.4076767658   -1.6318335308
 13         -5.4922719001   -1.4400224400    4.4076677156   -1.6318328728
 14         -5.4922827535   -1.4400270959    4.4076630621   -1.6318325547
 15         -5.4922884809   -1.4400295164    4.4076606653   -1.6318324014
 16         -5.4922915059   -1.4400307770    4.4076594286   -1.6318323279
 17         -5.4922931051   -1.4400314347    4.4076587894   -1.6318322927
 18         -5.4922939512   -1.4400317785    4.4076584583   -1.6318322760
 19         -5.4922943993   -1.4400319585    4.4076582865   -1.6318322681
 20         -5.4922946368   -1.4400320529    4.4076581972   -1.6318322644
 21         -5.4922947627   -1.4400321025    4.4076581507   -1.6318322627
 22         -5.4922948296   -1.4400321287    4.4076581265   -1.6318322619
Atom SCF converged after  22 iterations to a total energy of     -5.49229483

Determining parallel strategy ...
... using space-filling curve
... NGWF load balancing: max     64;  min     64;  average     64
... Projector load balancing: max    128;  min    128;  average    128
... done
Calculating Ewald energy ...
              Ewald: real-space energy =    9554.967308
        Ewald: reciprocal-space energy =       0.031274
         Ewald: (sum_charge)**2 Energy =   11633.727624
         Ewald: (sum_charge**2) Energy =     919.726924
                          Ewald Energy =   -2998.455967
Basis initialisation ...... NGWF spheres initialised
... Projector spheres initialised
... NGWF tight boxes initialised
... Projector tight boxes initialised
... Tight-boxes gathered
... NGWF basis size (local,global):     694356  27887328
... PAW projector initialisation
... done

============================= Charge Augmentation ==============================
                           Aug box size:   11 x  11 x  11
================================================================================

========================== Sparse matrix information ===========================
                        Overlap matrix filling:  46.25%
                        Density kernel filling: 100.00%
              NGWF-Proj overlap matrix filling:  13.12%
                    Aug Overlap matrix filling:  49.38%
                    Hamiltonian matrix filling:  49.38%
                  NGWF diagonal matrix filling:   0.16%
                             KS matrix filling: 100.00% 
                           KSKS matrix filling: 100.00% 
================================================================================

Sparse matrix initialisation ... done
NGWF initialisation ...... done
============ Calculation of NGWF S^-1 using Hotelling algorithm ================ 
         Iteration  |  Frobenius norm and Maximum abs value    (of I-S*S_n^-1)   
               1       0.49307499E+02     0.97908514E+00
               2       0.48252968E+02     0.95995815E+00
               3       0.46626437E+02     0.92605126E+00
               4       0.44446536E+02     0.87069150E+00
               5       0.41775424E+02     0.78838810E+00
               6       0.38569546E+02     0.69765135E+00
               7       0.35038998E+02     0.64548346E+00
               8       0.31611703E+02     0.60197633E+00
               9       0.28155256E+02     0.56014159E+00
              10       0.23969816E+02     0.50009749E+00
              11       0.18491750E+02     0.40269355E+00
              12       0.11835596E+02     0.26542606E+00
              13       0.54445786E+01     0.12107680E+00
              14       0.13709956E+01     0.28291457E-01
              15       0.10525001E+00     0.18823492E-02
              16       0.79397891E-03     0.10816452E-04
              17       0.67971578E-07     0.56754423E-09
              18       0.89260116E-13     0.62172489E-14
================================================================================
Calculating core density ...
================================= Core Density =================================
               Core den box size:   21 x  21 x  21
================================================================================
 ... done
Up spin density kernel initialisation ...... done

Writing density kernel to file "3.085688_GO_manual_4x64graphite.dkn" ... done

>>> Optimising kernel for current NGWFs:

--------------------------- Ensemble-DFT optimisation --------------------------
Running ScaLAPACK on   40 processor(s).

--------------------------------------------------------------------------------
  Iter                              Commutator    Free_energy(A=E-TS)     DeltaA
#    0                          0.000057094014   -3657.74370076603918  -3.66E+03

Step                       =       0.381966011250
Energy                     =   -3657.743656993056
Entropy (-TS)              =      -0.000043773295
Free energy (A=E-TS)       =   -3657.743700766039
Est. 0K Energy 0.5*(E+A)   =   -3657.743678879548
Residual Non-orthogonality =       0.000000000000
Residual N_electrons       =       0.000000000312

Spin          Integrated_Ne            Fermi_level     Delta_Fermi_level
   1      2559.999999998781         0.255862569727              2.56E-01

                           Spin 1          
     Orb      H-eigenvalues     Occupancies
       1 |    -0.4711003087    1.0000000000 | 
                          ------
    1276 |     0.2234557215    0.9999640474 | 
    1277 |     0.2240554611    0.9999565515 | 
    1278 |     0.2240611085    0.9999564740 | 
    1279 |     0.2243247665    0.9999526952 | 
    1280 |     0.2249125408    0.9999430481 | 
                 - Gap at zero temperature -
    1281 |     0.2889332425    0.0000291539 | 
    1282 |     0.2889413378    0.0000290795 | 
    1283 |     0.2890806043    0.0000278284 | 
    1284 |     0.2891688304    0.0000270638 | 
    1285 |     0.2891768946    0.0000269950 | 
                          ------
    2560 |     1.0903029766    0.0000000000 | 

                       |  Abs_value |  Threshold | Converged
     Delta_Free_energy |   3.66E+03 |   1.00E-06 |        No
     Delta_Energy      |   3.66E+03 |   1.00E-04 |        No
     Delta_Entropy     |   4.38E-05 |   1.00E-04 |       Yes
     Commutator        |   5.71E-05 |   1.00E-05 |        No
     Delta_Fermi_level |   2.56E-01 |   1.00E-03 |        No

  Line search of the free energy minimum:
  Step_type        Step             Free_energy   Predicted_free_energy
.   Initial    0.000000    -3657.74370076603918
.    Trial1    0.381966    -3657.74691886099299
.    Trial2    0.618034    -3657.74624973169330
. Quadratic    0.422208    -3657.74694730956480    -3657.74694836437038

--------------------------------------------------------------------------------
  Iter                              Commutator    Free_energy(A=E-TS)     DeltaA
#    1                          0.000023686165   -3657.74694730956480  -3.25E-03

Step                       =       0.422208177805
Energy                     =   -3657.746905152746
Entropy (-TS)              =      -0.000042156819
Free energy (A=E-TS)       =   -3657.746947309565
Est. 0K Energy 0.5*(E+A)   =   -3657.746926231156
Residual Non-orthogonality =       0.000000000000
Residual N_electrons       =       0.000000000001

Spin          Integrated_Ne            Fermi_level     Delta_Fermi_level
   1      2559.999999999996         0.258958914837              3.10E-03

                           Spin 1          
     Orb      H-eigenvalues     Occupancies
       1 |    -0.4688376316    1.0000000000 | 
                          ------
    1276 |     0.2264976785    0.9999646596 | 
    1277 |     0.2269725614    0.9999589423 | 
    1278 |     0.2269856461    0.9999587723 | 
    1279 |     0.2273883245    0.9999531824 | 
    1280 |     0.2278591443    0.9999456782 | 
                 - Gap at zero temperature -
    1281 |     0.2921513001    0.0000280547 | 
    1282 |     0.2921742719    0.0000278519 | 
    1283 |     0.2923383641    0.0000264455 | 
    1284 |     0.2924681803    0.0000253834 | 
    1285 |     0.2924909110    0.0000252019 | 
                          ------
    2560 |     1.0957720309    0.0000000000 | 

                       |  Abs_value |  Threshold | Converged
     Delta_Free_energy |   3.25E-03 |   1.00E-06 |        No
     Delta_Energy      |   3.25E-03 |   1.00E-04 |        No
     Delta_Entropy     |   1.62E-06 |   1.00E-04 |       Yes
     Commutator        |   2.37E-05 |   1.00E-05 |        No
     Delta_Fermi_level |   3.10E-03 |   1.00E-03 |        No

  Line search of the free energy minimum:
  Step_type        Step             Free_energy   Predicted_free_energy
.   Initial    0.000000    -3657.74694730956480
.    Trial1    0.422208    -3657.74737698597755
.    Trial2    0.642905    -3657.74689726753559
. Quadratic    0.313612    -3657.74743622049891    -3657.74743552612154

--------------------------------------------------------------------------------
  Iter                              Commutator    Free_energy(A=E-TS)     DeltaA
#    2                          0.000016796066   -3657.74743622049891  -4.89E-04

Step                       =       0.313612227712
Energy                     =   -3657.747394956848
Entropy (-TS)              =      -0.000041263061
Free energy (A=E-TS)       =   -3657.747436220499
Est. 0K Energy 0.5*(E+A)   =   -3657.747415588673
Residual Non-orthogonality =       0.000000000000
Residual N_electrons       =      -0.000000000589

Spin          Integrated_Ne            Fermi_level     Delta_Fermi_level
   1      2560.000000002265         0.260203245576              1.24E-03

                           Spin 1          
     Orb      H-eigenvalues     Occupancies
       1 |    -0.4678784049    1.0000000000 | 
                          ------
    1276 |     0.2276572779    0.9999655926 | 
    1277 |     0.2281577913    0.9999597014 | 
    1278 |     0.2281725933    0.9999595126 | 
    1279 |     0.2285361215    0.9999545879 | 
    1280 |     0.2290340214    0.9999468566 | 
                 - Gap at zero temperature -
    1281 |     0.2934707619    0.0000273970 | 
    1282 |     0.2934949584    0.0000271884 | 
    1283 |     0.2936571352    0.0000258312 | 
    1284 |     0.2937920761    0.0000247536 | 
    1285 |     0.2937980754    0.0000247068 | 
                          ------
    2560 |     1.0980925117    0.0000000000 | 

                       |  Abs_value |  Threshold | Converged
     Delta_Free_energy |   4.89E-04 |   1.00E-06 |        No
     Delta_Energy      |   4.90E-04 |   1.00E-04 |        No
     Delta_Entropy     |   8.94E-07 |   1.00E-04 |       Yes
     Commutator        |   1.68E-05 |   1.00E-05 |        No
     Delta_Fermi_level |   1.24E-03 |   1.00E-03 |        No

  Line search of the free energy minimum:
  Step_type        Step             Free_energy   Predicted_free_energy
.   Initial    0.000000    -3657.74743622049891
.    Trial1    0.313612    -3657.74762806271201
.    Trial2    0.575789    -3657.74724408352995
. Quadratic    0.241625    -3657.74764691661767    -3657.74764674940343

--------------------------------------------------------------------------------
  Iter                              Commutator    Free_energy(A=E-TS)     DeltaA
#    3                          0.000011731354   -3657.74764691661767  -2.11E-04

Step                       =       0.241625414084
Energy                     =   -3657.747606104007
Entropy (-TS)              =      -0.000040812368
Free energy (A=E-TS)       =   -3657.747646916618
Est. 0K Energy 0.5*(E+A)   =   -3657.747626510312
Residual Non-orthogonality =       0.000000000000
Residual N_electrons       =      -0.000000000244

Spin          Integrated_Ne            Fermi_level     Delta_Fermi_level
   1      2560.000000000934         0.260865612595              6.62E-04

                           Spin 1          
     Orb      H-eigenvalues     Occupancies
       1 |    -0.4673673590    1.0000000000 | 
                          ------
    1276 |     0.2282818572    0.9999660007 | 
    1277 |     0.2287852059    0.9999601438 | 
    1278 |     0.2288001723    0.9999599550 | 
    1279 |     0.2291571909    0.9999551763 | 
    1280 |     0.2296580464    0.9999474961 | 
                 - Gap at zero temperature -
    1281 |     0.2941698317    0.0000270813 | 
    1282 |     0.2941941036    0.0000268745 | 
    1283 |     0.2943569852    0.0000255272 | 
    1284 |     0.2944899226    0.0000244778 | 
    1285 |     0.2944968588    0.0000244243 | 
                          ------
    2560 |     1.0993273122    0.0000000000 | 

                       |  Abs_value |  Threshold | Converged
     Delta_Free_energy |   2.11E-04 |   1.00E-06 |        No
     Delta_Energy      |   2.11E-04 |   1.00E-04 |        No
     Delta_Entropy     |   4.51E-07 |   1.00E-04 |       Yes
     Commutator        |   1.17E-05 |   1.00E-05 |        No
     Delta_Fermi_level |   6.62E-04 |   1.00E-03 |       Yes

  Line search of the free energy minimum:
  Step_type        Step             Free_energy   Predicted_free_energy
.   Initial    0.000000    -3657.74764691661767
.    Trial1    0.241625    -3657.74774857730108
.    Trial2    0.531299    -3657.74766583872906
. Quadratic    0.279043    -3657.74775041967450    -3657.74775043874661

--------------------------------------------------------------------------------
  Iter                              Commutator    Free_energy(A=E-TS)     DeltaA
[...]
 C   275 -- C   555       -0.10      5.37000
 C   274 -- C   554       -0.10      5.37000
 C   273 -- C   553       -0.10      5.37000
 C   272 -- C   552       -0.10      5.37000
 C   271 -- C   551       -0.10      5.37000
 C   270 -- C   550       -0.10      5.37000
 C   269 -- C   549       -0.10      5.37000
 C   268 -- C   548       -0.10      5.37000
 C   267 -- C   547       -0.10      5.37000
 C   266 -- C   546       -0.10      5.37000
 C   130 -- C   465       -0.10      5.37000
 C   129 -- C   464       -0.10      5.37000
 C   128 -- C   463       -0.10      5.37000
 C   127 -- C   462       -0.10      5.37000
 C   126 -- C   461       -0.10      5.37000
 C   240 -- C   525       -0.10      5.37000
 C   239 -- C   524       -0.10      5.37000
 C   238 -- C   523       -0.10      5.37000
 C   237 -- C   522       -0.10      5.37000
 C   236 -- C   521       -0.10      5.37000
 C    23 -- C   478       -0.10      5.37202
 C    49 -- C   469       -0.10      5.37202
 C    48 -- C   468       -0.10      5.37202
 C    47 -- C   467       -0.10      5.37202
 C    22 -- C   477       -0.10      5.37202
 C    46 -- C   466       -0.10      5.37202
 C    21 -- C   476       -0.10      5.37202
 C    25 -- C   480       -0.10      5.37202
 C    24 -- C   479       -0.10      5.37202
 C    50 -- C   470       -0.10      5.37202
 C    24 -- C   449       -0.10      5.37202
 C     6 -- C   416       -0.10      5.37202
 C    23 -- C   448       -0.10      5.37202
 C    22 -- C   447       -0.10      5.37202
 C    10 -- C   470       -0.10      5.37202
 C     5 -- C   450       -0.10      5.37202
 C    21 -- C   446       -0.10      5.37202
 C    10 -- C   420       -0.10      5.37202
 C     9 -- C   469       -0.10      5.37202
 C     9 -- C   419       -0.10      5.37202
 C     8 -- C   468       -0.10      5.37202
 C     4 -- C   449       -0.10      5.37202
 C     8 -- C   418       -0.10      5.37202
 C   285 -- C   580       -0.10      5.37202
 C   284 -- C   579       -0.10      5.37202
 C   283 -- C   578       -0.10      5.37202
 C   282 -- C   577       -0.10      5.37202
 C   281 -- C   576       -0.10      5.37202
 C     2 -- C   447       -0.10      5.37202
 C     7 -- C   467       -0.10      5.37202
 C   260 -- C   605       -0.10      5.37202
 C   259 -- C   604       -0.10      5.37202
 C   258 -- C   603       -0.10      5.37202
 C   257 -- C   602       -0.10      5.37202
 C   256 -- C   601       -0.10      5.37202
 C     7 -- C   417       -0.10      5.37202
 C     1 -- C   446       -0.10      5.37202
 C     6 -- C   466       -0.10      5.37202
 C    25 -- C   450       -0.10      5.37202
 C     3 -- C   448       -0.10      5.37202
 C   219 -- C   569       -0.10      5.37202
 C   218 -- C   568       -0.10      5.37202
 C   217 -- C   567       -0.10      5.37202
 C   216 -- C   566       -0.10      5.37202
 C   250 -- C   540       -0.10      5.37202
 C   249 -- C   539       -0.10      5.37202
 C   248 -- C   538       -0.10      5.37202
 C   247 -- C   537       -0.10      5.37202
 C   246 -- C   536       -0.10      5.37202
 C   220 -- C   570       -0.10      5.37202
 C   205 -- C   550       -0.10      5.37202
 C   204 -- C   549       -0.10      5.37202
 C   203 -- C   548       -0.10      5.37202
 C   202 -- C   547       -0.10      5.37202
 C   201 -- C   546       -0.10      5.37202
 C    95 -- C   365       -0.10      5.37202
 C    94 -- C   364       -0.10      5.37202
 C    93 -- C   363       -0.10      5.37202
 C    92 -- C   362       -0.10      5.37202
 C    91 -- C   361       -0.10      5.37202
 C    65 -- C   395       -0.10      5.37202
 C    64 -- C   394       -0.10      5.37202
 C    63 -- C   393       -0.10      5.37202
 C    30 -- C   355       -0.10      5.37202
 C    62 -- C   392       -0.10      5.37202
 C    61 -- C   391       -0.10      5.37202
 C    29 -- C   354       -0.10      5.37202
 C   260 -- C   550       -0.10      5.37202
 C   259 -- C   549       -0.10      5.37202
 C    28 -- C   353       -0.10      5.37202
 C   258 -- C   548       -0.10      5.37202
 C   257 -- C   547       -0.10      5.37202
 C   256 -- C   546       -0.10      5.37202
 C    27 -- C   352       -0.10      5.37202
 C    26 -- C   351       -0.10      5.37202
 C    55 -- C   335       -0.10      5.37202
 C    54 -- C   334       -0.10      5.37202
 C    53 -- C   333       -0.10      5.37202
 C   230 -- C   580       -0.10      5.37202
 C   230 -- C   525       -0.10      5.37202
 C   229 -- C   579       -0.10      5.37202
 C   229 -- C   524       -0.10      5.37202
 C   228 -- C   578       -0.10      5.37202
 C    52 -- C   332       -0.10      5.37202
 C   228 -- C   523       -0.10      5.37202
 C   227 -- C   577       -0.10      5.37202
 C   227 -- C   522       -0.10      5.37202
 C   226 -- C   576       -0.10      5.37202
 C   226 -- C   521       -0.10      5.37202
 C    51 -- C   331       -0.10      5.37202
 C   220 -- C   515       -0.10      5.37202
 C   219 -- C   514       -0.10      5.37202
 C   218 -- C   513       -0.10      5.37202
 C   217 -- C   512       -0.10      5.37202
 C   216 -- C   511       -0.10      5.37202
 C   195 -- C   540       -0.10      5.37202
 C   195 -- C   500       -0.10      5.37202
 C   194 -- C   539       -0.10      5.37202
 C   194 -- C   499       -0.10      5.37202
 C   193 -- C   538       -0.10      5.37202
 C   193 -- C   498       -0.10      5.37202
 C   192 -- C   537       -0.10      5.37202
 C   192 -- C   497       -0.10      5.37202
 C   191 -- C   536       -0.10      5.37202
 C   191 -- C   496       -0.10      5.37202
 C   180 -- C   515       -0.10      5.37202
 C   179 -- C   514       -0.10      5.37202
 C   178 -- C   513       -0.10      5.37202
 C   177 -- C   512       -0.10      5.37202
 C   176 -- C   511       -0.10      5.37202
 C   150 -- C   440       -0.10      5.37202
 C   149 -- C   439       -0.10      5.37202
 C   148 -- C   438       -0.10      5.37202
 C   147 -- C   437       -0.10      5.37202
 C   146 -- C   436       -0.10      5.37202
 C   135 -- C   460       -0.10      5.37202
 C   134 -- C   459       -0.10      5.37202
 C   133 -- C   458       -0.10      5.37202
 C   132 -- C   457       -0.10      5.37202
 C   131 -- C   456       -0.10      5.37202
 C    11 -- C   331       -0.10      5.37202
 C    95 -- C   425       -0.10      5.37202
 C    94 -- C   424       -0.10      5.37202
 C    93 -- C   423       -0.10      5.37202
 C    92 -- C   422       -0.10      5.37202
 C    91 -- C   421       -0.10      5.37202
 C    85 -- C   355       -0.10      5.37202
 C    40 -- C   365       -0.10      5.37202
 C    84 -- C   354       -0.10      5.37202
 C    83 -- C   353       -0.10      5.37202
 C    82 -- C   352       -0.10      5.37202
 C    39 -- C   364       -0.10      5.37202
 C    81 -- C   351       -0.10      5.37202
 C    38 -- C   363       -0.10      5.37202
 C    37 -- C   362       -0.10      5.37202
 C    36 -- C   361       -0.10      5.37202
 C    15 -- C   335       -0.10      5.37202
 C    65 -- C   345       -0.10      5.37202
 C    64 -- C   344       -0.10      5.37202
 C    63 -- C   343       -0.10      5.37202
 C    30 -- C   325       -0.10      5.37202
 C    62 -- C   342       -0.10      5.37202
 C    14 -- C   334       -0.10      5.37202
 C    61 -- C   341       -0.10      5.37202
 C    29 -- C   324       -0.10      5.37202
 C    28 -- C   323       -0.10      5.37202
 C    13 -- C   333       -0.10      5.37202
 C    27 -- C   322       -0.10      5.37202
 C   120 -- C   395       -0.10      5.37202
 C    55 -- C   385       -0.10      5.37202
 C   119 -- C   394       -0.10      5.37202
 C   118 -- C   393       -0.10      5.37202
 C   117 -- C   392       -0.10      5.37202
 C    54 -- C   384       -0.10      5.37202
 C    26 -- C   321       -0.10      5.37202
 C   116 -- C   391       -0.10      5.37202
 C    53 -- C   383       -0.10      5.37202
 C    12 -- C   332       -0.10      5.37202
 C    52 -- C   382       -0.10      5.37202
 C    51 -- C   381       -0.10      5.37202
 C   106 -- C   436       -0.10      5.37202
 C   106 -- C   376       -0.10      5.37202
 C    80 -- C   410       -0.10      5.37202
 C    79 -- C   409       -0.10      5.37202
 C    78 -- C   408       -0.10      5.37202
 C    77 -- C   407       -0.10      5.37202
 C    76 -- C   406       -0.10      5.37202
 C   135 -- C   410       -0.10      5.37202
 C   134 -- C   409       -0.10      5.37202
 C   133 -- C   408       -0.10      5.37202
 C   132 -- C   407       -0.10      5.37202
 C   131 -- C   406       -0.10      5.37202
 C   110 -- C   440       -0.10      5.37202
 C   110 -- C   380       -0.10      5.37202
 C   109 -- C   439       -0.10      5.37202
 C   109 -- C   379       -0.10      5.37202
 C   108 -- C   438       -0.10      5.37202
 C   108 -- C   378       -0.10      5.37202
 C   107 -- C   437       -0.10      5.37202
 C   107 -- C   377       -0.10      5.37202
 C   215 -- C   635       -0.10      5.38000
 C   214 -- C   634       -0.10      5.38000
 C   213 -- C   633       -0.10      5.38000
 C   212 -- C   632       -0.10      5.38000
 C   211 -- C   631       -0.10      5.38000
 C   190 -- C   620       -0.10      5.38000
 C   189 -- C   619       -0.10      5.38000
 C   188 -- C   618       -0.10      5.38000
 C   187 -- C   617       -0.10      5.38000
 C   186 -- C   616       -0.10      5.38000
 C   175 -- C   595       -0.10      5.38000
 C   174 -- C   594       -0.10      5.38000
 C   173 -- C   593       -0.10      5.38000
 C   172 -- C   592       -0.10      5.38000
 C   171 -- C   591       -0.10      5.38000
 C   245 -- C   640       -0.10      5.38000
 C   244 -- C   639       -0.10      5.38000
 C   243 -- C   638       -0.10      5.38000
 C   242 -- C   637       -0.10      5.38000
 C   241 -- C   636       -0.10      5.38000
==================================================


=================== Orbital energy and occupancy information ===================

      Total number of orbitals:    2560
        Occupancy sum (kernel):    1280.000000000
   Occupancy sum (eigenvalues):    1280.000000000
                 HOMO-LUMO gap:       0.061988172 Eh
                 Mid-gap level:       0.298396614 Eh

                        Orbital | Energy (Eh) | Occupancy
                            1    -0.432642015   1.0000000
                        .......   ...........   .........
                         1271     0.262557315   0.9999856
                         1272     0.262579506   0.9999855
                         1273     0.263026755   0.9999833
                         1274     0.263048847   0.9999832
                         1275     0.266866919   0.9999439
                         1276     0.266869610   0.9999439
                         1277     0.266996105   0.9999415
                         1278     0.267295643   0.9999358
                         1279     0.267298463   0.9999357
                         1280     0.267402528   0.9999335
                        ....... -- gap at 0K -- .........
                         1281     0.329390701   0.0000474
                         1282     0.329399170   0.0000473
                         1283     0.329652039   0.0000437
                         1284     0.329660487   0.0000435
                         1285     0.330550344   0.0000330
                         1286     0.330557944   0.0000330
                         1287     0.330830809   0.0000302
                         1288     0.330838383   0.0000302
                         1289     0.331326461   0.0000259
                         1290     0.331614509   0.0000237
                        .......   ...........   .........
                         2560     1.190823901   0.0000000

================================================================================

===================== Writing canonical molecular orbitals =====================
| Orbital  Energy (eV)  Norm     |
| HOMO      7.27639304  1.000000 | Writing "3.085688_GO_manual_4x64graphite_HOMO.cube" ... done
Writing "3.085688_GO_manual_4x64graphite_HOMO.dx" ... done
| LUMO      8.96317704  1.000000 | Writing "3.085688_GO_manual_4x64graphite_LUMO.cube" ... done
Writing "3.085688_GO_manual_4x64graphite_LUMO.dx" ... done
================================================================================
 
===================== Density of States (DOS) calculation ======================
Writing "3.085688_GO_manual_4x64graphite_DOS.txt" ...  done
================================================================================
 
Writing bands to file "3.085688_GO_manual_4x64graphite.val_bands" ... done
 
================ Projected Density of States (pDOS) calculation ================
 
Constructing AM resolved functions  ...... done
Writing NGWF plot files in formats: CUBE DX ...  done
 
Performing overlap integrals ...  done
 
Computing pDOS weights ...  done
 
All bands spilling parameter =   3.82 %
Occupancy-weighted spilling parameter =   0.82 %
 
 => Outputting data for OptaDOS <=
 
Writing pDOS weights to file "3.085688_GO_manual_4x64graphite.val_pdos_bin" ... done
 
Writing band gradients to file "3.085688_GO_manual_4x64graphite.val_dome_bin" ... done
 
Writing Castep output cell file to "3.085688_GO_manual_4x64graphite-out.cell" ... done
 
 => Computing Gaussian smeared pDOS <= 
Writing "3.085688_GO_manual_4x64graphite_PDOS.txt" ...  done
 
 => Computing Occupancy-weighted Gaussian smeared pDOS <= 
Writing "3.085688_GO_manual_4x64graphite_occ_PDOS.txt" ...  done
  => Band centres: 
 S band centre of group 1:  -13.893760 eV
 P band centre of group 1:   -6.763451 eV
  Band centres done. <=
  => Integrated number of electrons in each AM band: 
 S num electrons of group 1:  577.750954
 P num electrons of group 1: 1961.171932
  Integrated number of electrons done. <=
================================================================================

------------------------------ TIMING INFORMATION ------------------------------
AVERAGE TIME:    4632.728s on     40 node(s)                                    
TOTAL TIME:      4632.729s on     40 node(s)                                    
================= AVERAGE TIMINGS FROM ALL NODES (CUMULATIVE) ==================
|| TAG                                    #calls    cpu time   %total  Gflops ||
|| work_imbalance                       :     1        0.00s   0.000%  ------ ||
|| paw_tcore_hartree_on_grid            :     1        0.01s   0.000%  ------ ||
|| paw_tcore_density                    :     1        0.01s   0.000%  ------ ||
|| paw_sphere_density_on_grid           :     1        0.01s   0.000%  ------ ||
|| sparse_set_to_garbage                :   183        0.03s   0.001%  ------ ||
|| pseudo_make_structure_factor         :     1        0.05s   0.001%  ------ ||
|| paw_dij_hartree                      :   416        0.05s   0.001%  ------ ||
|| basis_extract_function_from_box      :  2048        0.09s   0.002%  ------ ||
|| paw_species_calc_proj_prec_mat       :     1        0.12s   0.003%  ------ ||
|| paw_dataset_init                     :     1        0.19s   0.004%  ------ ||
|| density_init_guess_real              :     1        0.20s   0.004%  ------ ||
|| ngwfs_initialise_from_radial         :     2        0.67s   0.014%  ------ ||
|| restart_kernel_write                 :    17        0.92s   0.020%  ------ ||
|| sparse_init                          :     1        0.99s   0.021%  ------ ||
|| dense_normal_eigensolve              :     1        1.06s   0.023%  ------ ||
|| hartree_on_grid                      :   313        1.78s   0.038%  ------ ||
|| ewald_calculate_energy               :     1        2.18s   0.047%  ------ ||
|| projectors_init_fftbox_recip         :   161        2.96s   0.064%  ------ ||
|| basis_copy_function_to_box           : 29376        5.57s   0.120%  ------ ||
|| fourier_apply_box_pair               :  3040        6.25s   0.135% 426.524 ||
|| sw_init                              :     1        6.73s   0.145%  ------ ||
|| augmentation_screen_dij              :   320        6.91s   0.149%  ------ ||
|| sparse_embed_hotelling_invert_embed  :    31        9.42s   0.203%  ------ ||
|| ngwf_gradient_coeffs                 :    16       13.64s   0.294%  ------ ||
|| cell_grid_extract_box_real           : 12428       16.64s   0.359%  ------ ||
|| fourier_apply_cell_backward          :  9674       17.62s   0.380%  58.959 ||
|| fourier_apply_cell_forward           :  9049       18.94s   0.409%  51.314 ||
|| sparse_trace                         :  3788       20.80s   0.449%  ------ ||
|| cell_grid_deposit_box_real           : 40240       24.83s   0.536%  ------ ||
|| paw_dij_xc                           :   416       37.27s   0.805%  ------ ||
|| density_fftbox_deposit_to_cell       : 20032       44.86s   0.968%  ------ ||
|| aug_nonlocal_mat                     :   400       51.37s   1.109%  ------ ||
|| eigenstates_pdos                     :     1       54.63s   1.179%  ------ ||
|| eigenstates_calculate                :     1       58.89s   1.271%  ------ ||
|| augmentation_density_on_grid         :   313       60.29s   1.301%  ------ ||
|| hamiltonian_energy_components        :     4       69.00s   1.489%  ------ ||
|| function_ops_brappd_ketppd           :    64       70.59s   1.524%  ------ ||
|| nlxc_vdw_energy                      :   624       74.72s   1.613%  ------ ||
|| projectors_func_ovlp_box             :    32       80.00s   1.727%  ------ ||
|| xc_energy_potential                  :   312       86.38s   1.865%  ------ ||
|| properties_calculate                 :     1      105.21s   2.271%  ------ ||
|| integrals_kinetic                    :    31      121.43s   2.621%  ------ ||
|| dense_eigensolve                     :   277      130.17s   2.810%  ------ ||
|| restart_ngwfs_tightbox_output        :    15      144.36s   3.116%  ------ ||
|| potential_apply_to_ngwf_batch        :   392      152.39s   3.290%  ------ ||
|| sparse_product                       :  3756      168.97s   3.647%  ------ ||
|| basis_dot_function_with_box          : 9.978M     270.13s   5.831%  ------ ||
|| projectors_gradient_batch            :    64      285.21s   6.156%  ------ ||
|| edft_diag_ngwf_ham                   :   276      299.69s   6.469%  ------ ||
|| fourier_apply_box                    : 92080      315.76s   6.816% 842.148 ||
|| density_fftbox_interpolate_multiply  : 20032      383.64s   8.281%  ------ ||
|| integrals_locpot_mat_els_batch       :   392      384.32s   8.296%  ------ ||
|| projectors_grad_precond_batch        :    64      409.67s   8.843%  ------ ||
|| density_batch_interp_deposit         :  1252      474.19s  10.236%  ------ ||
|| integrals_locpot_dbl_grid            :    98      538.92s  11.633%  ------ ||
|| edft_apply_smearing_operator         :   276      591.32s  12.764%  ------ ||
|| basis_add_function_to_box            : 28.57M     738.50s  15.941%  ------ ||
|| ngwf_gradient_build_batch            :    64      743.15s  16.041%  ------ ||
|| ngwf_gradient_batch                  :    64     1008.12s  21.761%  ------ ||
|| ngwf_gradient_lnv                    :    16     1041.41s  22.479%  ------ ||
|| density_batch_row_sums               :  1252     1113.22s  24.030%  ------ ||
|| density_on_dbl_grid                  :   313     1604.43s  34.633%  ------ ||
|| hamiltonian_lhxc_calculate           :   307     1724.20s  37.218%  ------ ||
|| edft_calculate                       :    16     2849.23s  61.502%  ------ ||
|| ngwf_cg_optimise                     :     1     4500.92s  97.155%  ------ ||
|| total_time                           :     1     4632.73s 100.000%  ------ ||
================================================================================
Overhead of generating timer report: 
- 0 ms averaging over threads,
- 5 ms ensuring consistency across MPI ranks,
- 0 ms printing in order.

Job completed: 26-02-2020 00:11 (-0000)

