 +---------------------------------------------------------------+
 |                                                               |
 |        ####### #     # ####### ####### ####### ######         |
 |        #     # ##    # #          #    #       #     #        |
 |        #     # # #   # #          #    #       #     #        |
 |        #     # #  #  # #####      #    #####   ######         |
 |        #     # #   # # #          #    #       #              |
 |        #     # #    ## #          #    #       #              |
 |        ####### #     # #######    #    ####### #              |
 |                                                               |
 |        Linear-Scaling Ab Initio Total Energy Program          |
 |                                                               |
 |          Release for academic collaborators of ODG            |
 |                                             Version 5.3.2.12  |
 |                                                               |
 +---------------------------------------------------------------+
 |                                                               |
 |  Authors:                                                     |
 |  Jacek Dziedzic, Peter D. Haynes, Nicholas D. M. Hine,        |
 |  Arash. A. Mostofi, Mike C. Payne and Chris-Kriton Skylaris   |
 |                                                               |
 |  Contributors:                                                |
 |  J. Aarons, L. Andrinopoulos, P. W. Avraam, R. A. Bell,       |
 |  A. Bhandari, G. A. Bramley, R. J. Charlton, S. J. Clark,     |
 |  R. J. Clements, G. C. Constantinescu, F. Corsetti,           |
 |  N. Corsini, O. Dieguez, S. M. M. Dubois, K. K. B. Duff,      |
 |  J. M. Escartin, A. Greco, H. Helal, Q. O. Hill, L. P. Lee,   |
 |  J.-H. Li, E. B. Linscott, G. Moynihan, D. D. O`Regan,        |
 |  O. K. Okan, M. J. S. Phipps, C. J. Pickard,                  |
 |  J. C. A. Prentice, M. I. J. Probert, L. E. Ratcliff,         |
 |  M. Robinson, A. Ruiz Serrano, J. S. Spencer, E. W. Tait,     |
 |  G. Teobaldi, D. Turban, V. Vitale, K. A. Wilkinson,          |
 |  C. Weber, J. C. Womack, N. Yeung and T. J. Zuehlsdorff       |
 |                                                               |
 |                                   Copyright (c) 2004-2020     |
 |                                                               |
 |  Please cite:                                                 |
 |  "Introducing ONETEP: Linear-scaling density functional       |
 |   simulations on parallel computers".                         |
 |   C.-K. Skylaris, P. D. Haynes, A. A. Mostofi, M. C. Payne.   |
 |   J. Chem. Phys. 122 084119 (2005).                           |
 |                                                               |
 |          in all publications arising from your use of ONETEP. |
 |                                                               |
 +---------------------------------------------------------------+
 |                                                               |
 |   ONETEP is based on developments described in the following  |
 |   publications:                                               |
 |                                                               |
 |  "Nonorthogonal generalized Wannier function pseudopotential  |
 |   plane-wave method".                                         |
 |   C.-K. Skylaris, A. A. Mostofi, P. D. Haynes, O. Dieguez,    |
 |   M. C. Payne.                                                |
 |   Phys. Rev. B 66 035119 (2002).                              |
 |                                                               |
 |  "Preconditioned iterative minimization for linear-scaling    |
 |   electronic structure calculations".                         |
 |   A. A. Mostofi, P. D. Haynes, C.-K. Skylaris, M. C. Payne.   |
 |   J. Chem. Phys. 119(17), pp.8842-8848 (2003).                |
 |                                                               |
 |  "Total-energy calculations on a real space grid with         |
 |   localized functions and a plane-wave basis".                |
 |   A. A. Mostofi, C.-K. Skylaris, P. D. Haynes, M. C. Payne.   |
 |   Comput. Phys. Commun. 147, pp.788-802 (2002).               |
 |                                                               |
 |  "Accurate kinetic energy evaluation in electronic structure  |
 |   calculations with localized functions on real space grids"  |
 |   C.-K. Skylaris, A. A. Mostofi, P. D. Haynes, C. J. Pickard, |
 |   M. C. Payne.                                                |
 |   Comput. Phys. Commun. 140, pp.315-322 (2001).               |
 |                                                               |
 |  "Accurate ionic forces and geometry optimization in linear-  |
 |   scaling density-functional theory with local orbitals"      |
 |   N. D. M. Hine, M. Robinson, P. D. Haynes, C.-K. Skylaris,   |
 |   M. C. Payne, and A. A. Mostofi.                             |
 |   Phys. Rev. B 83 195102 (2011).                              |
 |                                                               |
 +---------------------------------------------------------------+

Job started: 25-02-2020 23:23 (-0000)
 
Reading parameters from file "3.1930128_GO_manual_4x64graphite.dat" ...

WARNING: "cutoff_energy" not specified, but "psinc_spacing" specified.
         Using the latter to set the KE cutoff energy to  732.32021eV,
         thus *overriding* the default.

... done

If your calculation crashes here, before "Checking processes and threads..."
is displayed, then your stack size is insufficient.
If so, use "ulimit -s unlimited" at runtime.
You can disable this check with "check_stack_size F".

Checking processes and threads...
   Determining the default number of threads...
      No default threads set at compilation time: defaulting to 1.
      OpenMP library call suggests 4 threads.
      Hybrid MPI-OpenMP compilation detected.
      Number of MPI processes > 1.
      OMP_NUM_THREADS environment variable present and
      its value matches the one obtained from the OpenMP library call.
      Using this value as default.
      Default threads: 4
      Default applies to threads_max and threads_num_fftboxes.
      Settings in the input file override this default.
   ... done

   Running with 40 MPI processes.
   There are 10 MPI processes running on the same node as the root process.
   Each MPI process is using: 
               1 threads for simulation cell FFTs.
               1 threads for parallel FFT box operations.
               4 threads for loops over batched FFT box operations.
               4 threads in other parallel regions.
... done

Basic input checks...
Resetting ngwf_cg_rotate to TRUE for EDFT calculations
... done

Reading geometry and species blocks from file "3.1930128_GO_manual_4x64graphite.dat" ...
    
  PSINC grid spacing along a1 set to   0.511215680000a0 from input file.
  PSINC grid spacing along a2 set to   0.531284090000a0 from input file.
  PSINC grid spacing along a3 set to   0.507053120000a0 from input file.
  Number of PPD points along a3 set to 1.  This is 
  the default value, it may have been provided also in the input file.
... done
 Writing xyz coordinates to file "3.1930128_GO_manual_4x64graphite.xyz" ... done


--------------------------------------------------------------------------------
---------------------------------- INPUT FILE ----------------------------------
--------------------------------------------------------------------------------

task : singlepoint                                                              
do_properties : true                                                            
dx_format T                                                                     
edft T                                                                          
output_detail VERBOSE                                                           
write_xyz T                                                                     
xc_functional VDWDF                                                             
PSINC_SPACING 0.51121568 0.53128409 0.50705312                                  
paw T                                                                           
pdos_max_l = 2                                                                  
dos_smear  0.1 eV                                                               
popn_calculate T                                                                
PDOS_PSEUDOATOMIC T                                                             
PDOS_REDUCE_SWS F                                                               
PDOS_CONSTRUCT_BASIS F                                                          
PDOS_LOWDIN T                                                                   
PDOS_ORTH_ATOM_BLOCKS F                                                         
PDOS_LCAO_OPTIMIZE F                                                            
pdos_optados_output T                                                           
homo_plot 0                                                                     
lumo_plot 0                                                                     
homo_dens_plot -1                                                               
lumo_dens_plot -1                                                               
%BLOCK SPECIES                                                                  
C C 6 4 9.0                                                                     
%ENDBLOCK SPECIES                                                               
%BLOCK SPECIES_POT                                                              
C "~/pp/paw/c_pbe_abinit.paw"                                                   
%ENDBLOCK SPECIES_POT                                                           
%BLOCK SPECIES_ATOMIC_SET                                                       
C "SOLVE conf=2s2 2p2"                                                          
%ENDBLOCK SPECIES_ATOMIC_SET                                                    
%BLOCK LATTICE_CART                                                             
32.21  0.00  0.00                                                               
0.00 18.59  0.00                                                                
0.00  0.00 60.34                                                                
%ENDBLOCK LATTICE_CART                                                          
%BLOCK POSITIONS_ABS                                                            
C  0.00  0.00  3.02                                                             
C  0.00  0.00 15.08                                                             
C  0.00  0.00 27.15                                                             
C  0.00  0.00 39.22                                                             
C  0.00  0.00 51.29                                                             
C  0.00  4.65  3.02                                                             
C  0.00  4.65 15.08                                                             
C  0.00  4.65 27.15                                                             
C  0.00  4.65 39.22                                                             
C  0.00  4.65 51.29                                                             
C  4.03  2.32  3.02                                                             
C  4.03  2.32 15.08                                                             
C  4.03  2.32 27.15                                                             
C  4.03  2.32 39.22                                                             
C  4.03  2.32 51.29                                                             
C  8.05  0.00  3.02                                                             
C  8.05  0.00 15.08                                                             
C  8.05  0.00 27.15                                                             
C  8.05  0.00 39.22                                                             
C  8.05  0.00 51.29                                                             
C  0.00  9.30  3.02                                                             
C  0.00  9.30 15.08                                                             
C  0.00  9.30 27.15                                                             
C  0.00  9.30 39.22                                                             
C  0.00  9.30 51.29                                                             
C  4.03  6.97  3.02                                                             
C  4.03  6.97 15.08                                                             
C  4.03  6.97 27.15                                                             
C  4.03  6.97 39.22                                                             
C  4.03  6.97 51.29                                                             
C  8.05  4.65  3.02                                                             
C  8.05  4.65 15.08                                                             
C  8.05  4.65 27.15                                                             
C  8.05  4.65 39.22                                                             
C  8.05  4.65 51.29                                                             
C 12.08  2.32  3.02                                                             
C 12.08  2.32 15.08                                                             
C 12.08  2.32 27.15                                                             
C 12.08  2.32 39.22                                                             
C 12.08  2.32 51.29                                                             
C 16.10  0.00  3.02                                                             
C 16.10  0.00 15.08                                                             
C 16.10  0.00 27.15                                                             
C 16.10  0.00 39.22                                                             
C 16.10  0.00 51.29                                                             
C  0.00 13.95  3.02                                                             
C  0.00 13.95 15.08                                                             
C  0.00 13.95 27.15                                                             
C  0.00 13.95 39.22                                                             
C  0.00 13.95 51.29                                                             
C  4.03 11.62  3.02                                                             
C  4.03 11.62 15.08                                                             
C  4.03 11.62 27.15                                                             
C  4.03 11.62 39.22                                                             
C  4.03 11.62 51.29                                                             
C  8.05  9.30  3.02                                                             
C  8.05  9.30 15.08                                                             
C  8.05  9.30 27.15                                                             
C  8.05  9.30 39.22                                                             
C  8.05  9.30 51.29                                                             
C 12.08  6.97  3.02                                                             
C 12.08  6.97 15.08                                                             
C 12.08  6.97 27.15                                                             
C 12.08  6.97 39.22                                                             
C 12.08  6.97 51.29                                                             
C 16.10  4.65  3.02                                                             
C 16.10  4.65 15.08                                                             
C 16.10  4.65 27.15                                                             
C 16.10  4.65 39.22                                                             
C 16.10  4.65 51.29                                                             
C 20.13  2.32  3.02                                                             
C 20.13  2.32 15.08                                                             
C 20.13  2.32 27.15                                                             
C 20.13  2.32 39.22                                                             
C 20.13  2.32 51.29                                                             
C 24.16  0.00  3.02                                                             
C 24.16  0.00 15.08                                                             
C 24.16  0.00 27.15                                                             
C 24.16  0.00 39.22                                                             
C 24.16  0.00 51.29                                                             
C  4.03 16.27  3.02                                                             
C  4.03 16.27 15.08                                                             
C  4.03 16.27 27.15                                                             
C  4.03 16.27 39.22                                                             
C  4.03 16.27 51.29                                                             
C  8.05 13.95  3.02                                                             
C  8.05 13.95 15.08                                                             
C  8.05 13.95 27.15                                                             
C  8.05 13.95 39.22                                                             
C  8.05 13.95 51.29                                                             
C 12.08 11.62  3.02                                                             
C 12.08 11.62 15.08                                                             
C 12.08 11.62 27.15                                                             
C 12.08 11.62 39.22                                                             
C 12.08 11.62 51.29                                                             
C 16.10  9.30  3.02                                                             
C 16.10  9.30 15.08                                                             
C 16.10  9.30 27.15                                                             
C 16.10  9.30 39.22                                                             
C 16.10  9.30 51.29                                                             
C 20.13  6.97  3.02                                                             
C 20.13  6.97 15.08                                                             
C 20.13  6.97 27.15                                                             
C 20.13  6.97 39.22                                                             
C 20.13  6.97 51.29                                                             
C 24.16  4.65  3.02                                                             
C 24.16  4.65 15.08                                                             
C 24.16  4.65 27.15                                                             
C 24.16  4.65 39.22                                                             
C 24.16  4.65 51.29                                                             
C 28.18  2.32  3.02                                                             
C 28.18  2.32 15.08                                                             
C 28.18  2.32 27.15                                                             
C 28.18  2.32 39.22                                                             
C 28.18  2.32 51.29                                                             
C 12.08 16.27  3.02                                                             
C 12.08 16.27 15.08                                                             
C 12.08 16.27 27.15                                                             
C 12.08 16.27 39.22                                                             
C 12.08 16.27 51.29                                                             
C 16.10 13.95  3.02                                                             
C 16.10 13.95 15.08                                                             
C 16.10 13.95 27.15                                                             
C 16.10 13.95 39.22                                                             
C 16.10 13.95 51.29                                                             
C 20.13 11.62  3.02                                                             
C 20.13 11.62 15.08                                                             
C 20.13 11.62 27.15                                                             
C 20.13 11.62 39.22                                                             
C 20.13 11.62 51.29                                                             
C 24.16  9.30  3.02                                                             
C 24.16  9.30 15.08                                                             
C 24.16  9.30 27.15                                                             
C 24.16  9.30 39.22                                                             
C 24.16  9.30 51.29                                                             
C 28.18  6.97  3.02                                                             
C 28.18  6.97 15.08                                                             
C 28.18  6.97 27.15                                                             
C 28.18  6.97 39.22                                                             
C 28.18  6.97 51.29                                                             
C 20.13 16.27  3.02                                                             
C 20.13 16.27 15.08                                                             
C 20.13 16.27 27.15                                                             
C 20.13 16.27 39.22                                                             
C 20.13 16.27 51.29                                                             
C 24.16 13.95  3.02                                                             
C 24.16 13.95 15.08                                                             
C 24.16 13.95 27.15                                                             
C 24.16 13.95 39.22                                                             
C 24.16 13.95 51.29                                                             
C 28.18 11.62  3.02                                                             
C 28.18 11.62 15.08                                                             
C 28.18 11.62 27.15                                                             
C 28.18 11.62 39.22                                                             
C 28.18 11.62 51.29                                                             
C 28.18 16.27  3.02                                                             
C 28.18 16.27 15.08                                                             
C 28.18 16.27 27.15                                                             
C 28.18 16.27 39.22                                                             
C 28.18 16.27 51.29                                                             
C  0.00  0.00  9.05                                                             
C  0.00  0.00 21.12                                                             
C  0.00  0.00 33.19                                                             
C  0.00  0.00 45.25                                                             
C  0.00  0.00 57.32                                                             
C  0.00  4.65  9.05                                                             
C  0.00  4.65 21.12                                                             
C  0.00  4.65 33.19                                                             
C  0.00  4.65 45.25                                                             
C  0.00  4.65 57.32                                                             
C  4.03  2.32  9.05                                                             
C  4.03  2.32 21.12                                                             
C  4.03  2.32 33.19                                                             
C  4.03  2.32 45.25                                                             
C  4.03  2.32 57.32                                                             
C  8.05  0.00  9.05                                                             
C  8.05  0.00 21.12                                                             
C  8.05  0.00 33.19                                                             
C  8.05  0.00 45.25                                                             
C  8.05  0.00 57.32                                                             
C  0.00  9.30  9.05                                                             
C  0.00  9.30 21.12                                                             
C  0.00  9.30 33.19                                                             
C  0.00  9.30 45.25                                                             
C  0.00  9.30 57.32                                                             
C  4.03  6.97  9.05                                                             
C  4.03  6.97 21.12                                                             
C  4.03  6.97 33.19                                                             
C  4.03  6.97 45.25                                                             
C  4.03  6.97 57.32                                                             
C  8.05  4.65  9.05                                                             
C  8.05  4.65 21.12                                                             
C  8.05  4.65 33.19                                                             
C  8.05  4.65 45.25                                                             
C  8.05  4.65 57.32                                                             
C 12.08  2.32  9.05                                                             
C 12.08  2.32 21.12                                                             
C 12.08  2.32 33.19                                                             
C 12.08  2.32 45.25                                                             
C 12.08  2.32 57.32                                                             
C 16.10  0.00  9.05                                                             
C 16.10  0.00 21.12                                                             
C 16.10  0.00 33.19                                                             
C 16.10  0.00 45.25                                                             
C 16.10  0.00 57.32                                                             
C  0.00 13.95  9.05                                                             
C  0.00 13.95 21.12                                                             
C  0.00 13.95 33.19                                                             
C  0.00 13.95 45.25                                                             
C  0.00 13.95 57.32                                                             
C  4.03 11.62  9.05                                                             
C  4.03 11.62 21.12                                                             
C  4.03 11.62 33.19                                                             
C  4.03 11.62 45.25                                                             
C  4.03 11.62 57.32                                                             
C  8.05  9.30  9.05                                                             
C  8.05  9.30 21.12                                                             
C  8.05  9.30 33.19                                                             
C  8.05  9.30 45.25                                                             
C  8.05  9.30 57.32                                                             
C 12.08  6.97  9.05                                                             
C 12.08  6.97 21.12                                                             
C 12.08  6.97 33.19                                                             
C 12.08  6.97 45.25                                                             
C 12.08  6.97 57.32                                                             
C 16.10  4.65  9.05                                                             
C 16.10  4.65 21.12                                                             
C 16.10  4.65 33.19                                                             
C 16.10  4.65 45.25                                                             
C 16.10  4.65 57.32                                                             
C 20.13  2.32  9.05                                                             
C 20.13  2.32 21.12                                                             
C 20.13  2.32 33.19                                                             
C 20.13  2.32 45.25                                                             
C 20.13  2.32 57.32                                                             
C 24.16  0.00  9.05                                                             
C 24.16  0.00 21.12                                                             
C 24.16  0.00 33.19                                                             
C 24.16  0.00 45.25                                                             
C 24.16  0.00 57.32                                                             
C  4.03 16.27  9.05                                                             
C  4.03 16.27 21.12                                                             
C  4.03 16.27 33.19                                                             
C  4.03 16.27 45.25                                                             
C  4.03 16.27 57.32                                                             
C  8.05 13.95  9.05                                                             
C  8.05 13.95 21.12                                                             
C  8.05 13.95 33.19                                                             
C  8.05 13.95 45.25                                                             
C  8.05 13.95 57.32                                                             
C 12.08 11.62  9.05                                                             
C 12.08 11.62 21.12                                                             
C 12.08 11.62 33.19                                                             
C 12.08 11.62 45.25                                                             
C 12.08 11.62 57.32                                                             
C 16.10  9.30  9.05                                                             
C 16.10  9.30 21.12                                                             
C 16.10  9.30 33.19                                                             
C 16.10  9.30 45.25                                                             
C 16.10  9.30 57.32                                                             
C 20.13  6.97  9.05                                                             
C 20.13  6.97 21.12                                                             
C 20.13  6.97 33.19                                                             
C 20.13  6.97 45.25                                                             
C 20.13  6.97 57.32                                                             
C 24.16  4.65  9.05                                                             
C 24.16  4.65 21.12                                                             
C 24.16  4.65 33.19                                                             
C 24.16  4.65 45.25                                                             
C 24.16  4.65 57.32                                                             
C 28.18  2.32  9.05                                                             
C 28.18  2.32 21.12                                                             
C 28.18  2.32 33.19                                                             
C 28.18  2.32 45.25                                                             
C 28.18  2.32 57.32                                                             
C 12.08 16.27  9.05                                                             
C 12.08 16.27 21.12                                                             
C 12.08 16.27 33.19                                                             
C 12.08 16.27 45.25                                                             
C 12.08 16.27 57.32                                                             
C 16.10 13.95  9.05                                                             
C 16.10 13.95 21.12                                                             
C 16.10 13.95 33.19                                                             
C 16.10 13.95 45.25                                                             
C 16.10 13.95 57.32                                                             
C 20.13 11.62  9.05                                                             
C 20.13 11.62 21.12                                                             
C 20.13 11.62 33.19                                                             
C 20.13 11.62 45.25                                                             
C 20.13 11.62 57.32                                                             
C 24.16  9.30  9.05                                                             
C 24.16  9.30 21.12                                                             
C 24.16  9.30 33.19                                                             
C 24.16  9.30 45.25                                                             
C 24.16  9.30 57.32                                                             
C 28.18  6.97  9.05                                                             
C 28.18  6.97 21.12                                                             
C 28.18  6.97 33.19                                                             
C 28.18  6.97 45.25                                                             
C 28.18  6.97 57.32                                                             
C 20.13 16.27  9.05                                                             
C 20.13 16.27 21.12                                                             
C 20.13 16.27 33.19                                                             
C 20.13 16.27 45.25                                                             
C 20.13 16.27 57.32                                                             
C 24.16 13.95  9.05                                                             
C 24.16 13.95 21.12                                                             
C 24.16 13.95 33.19                                                             
C 24.16 13.95 45.25                                                             
C 24.16 13.95 57.32                                                             
C 28.18 11.62  9.05                                                             
C 28.18 11.62 21.12                                                             
C 28.18 11.62 33.19                                                             
C 28.18 11.62 45.25                                                             
C 28.18 11.62 57.32                                                             
C 28.18 16.27  9.05                                                             
C 28.18 16.27 21.12                                                             
C 28.18 16.27 33.19                                                             
C 28.18 16.27 45.25                                                             
C 28.18 16.27 57.32                                                             
C  1.34  2.32  3.02                                                             
C  1.34  2.32 15.08                                                             
C  1.34  2.32 27.15                                                             
C  1.34  2.32 39.22                                                             
C  1.34  2.32 51.29                                                             
C  5.37  0.00  3.02                                                             
C  5.37  0.00 15.08                                                             
C  5.37  0.00 27.15                                                             
C  5.37  0.00 39.22                                                             
C  5.37  0.00 51.29                                                             
C  1.34  6.97  3.02                                                             
C  1.34  6.97 15.08                                                             
C  1.34  6.97 27.15                                                             
C  1.34  6.97 39.22                                                             
C  1.34  6.97 51.29                                                             
C  5.37  4.65  3.02                                                             
C  5.37  4.65 15.08                                                             
C  5.37  4.65 27.15                                                             
C  5.37  4.65 39.22                                                             
C  5.37  4.65 51.29                                                             
C  9.39  2.32  3.02                                                             
C  9.39  2.32 15.08                                                             
C  9.39  2.32 27.15                                                             
C  9.39  2.32 39.22                                                             
C  9.39  2.32 51.29                                                             
C 13.42  0.00  3.02                                                             
C 13.42  0.00 15.08                                                             
C 13.42  0.00 27.15                                                             
C 13.42  0.00 39.22                                                             
C 13.42  0.00 51.29                                                             
C  1.34 11.62  3.02                                                             
C  1.34 11.62 15.08                                                             
C  1.34 11.62 27.15                                                             
C  1.34 11.62 39.22                                                             
C  1.34 11.62 51.29                                                             
C  5.37  9.30  3.02                                                             
C  5.37  9.30 15.08                                                             
C  5.37  9.30 27.15                                                             
C  5.37  9.30 39.22                                                             
C  5.37  9.30 51.29                                                             
C  9.39  6.97  3.02                                                             
C  9.39  6.97 15.08                                                             
C  9.39  6.97 27.15                                                             
C  9.39  6.97 39.22                                                             
C  9.39  6.97 51.29                                                             
C 13.42  4.65  3.02                                                             
C 13.42  4.65 15.08                                                             
C 13.42  4.65 27.15                                                             
C 13.42  4.65 39.22                                                             
C 13.42  4.65 51.29                                                             
C 17.45  2.32  3.02                                                             
C 17.45  2.32 15.08                                                             
C 17.45  2.32 27.15                                                             
C 17.45  2.32 39.22                                                             
C 17.45  2.32 51.29                                                             
C 21.47  0.00  3.02                                                             
C 21.47  0.00 15.08                                                             
C 21.47  0.00 27.15                                                             
C 21.47  0.00 39.22                                                             
C 21.47  0.00 51.29                                                             
C  1.34 16.27  3.02                                                             
C  1.34 16.27 15.08                                                             
C  1.34 16.27 27.15                                                             
C  1.34 16.27 39.22                                                             
C  1.34 16.27 51.29                                                             
C  5.37 13.95  3.02                                                             
C  5.37 13.95 15.08                                                             
C  5.37 13.95 27.15                                                             
C  5.37 13.95 39.22                                                             
C  5.37 13.95 51.29                                                             
C  9.39 11.62  3.02                                                             
C  9.39 11.62 15.08                                                             
C  9.39 11.62 27.15                                                             
C  9.39 11.62 39.22                                                             
C  9.39 11.62 51.29                                                             
C 13.42  9.30  3.02                                                             
C 13.42  9.30 15.08                                                             
C 13.42  9.30 27.15                                                             
C 13.42  9.30 39.22                                                             
C 13.42  9.30 51.29                                                             
C 17.45  6.97  3.02                                                             
C 17.45  6.97 15.08                                                             
C 17.45  6.97 27.15                                                             
C 17.45  6.97 39.22                                                             
C 17.45  6.97 51.29                                                             
C 21.47  4.65  3.02                                                             
C 21.47  4.65 15.08                                                             
C 21.47  4.65 27.15                                                             
C 21.47  4.65 39.22                                                             
C 21.47  4.65 51.29                                                             
C 25.50  2.32  3.02                                                             
C 25.50  2.32 15.08                                                             
C 25.50  2.32 27.15                                                             
C 25.50  2.32 39.22                                                             
C 25.50  2.32 51.29                                                             
C 29.52  0.00  3.02                                                             
C 29.52  0.00 15.08                                                             
C 29.52  0.00 27.15                                                             
C 29.52  0.00 39.22                                                             
C 29.52  0.00 51.29                                                             
C  9.39 16.27  3.02                                                             
C  9.39 16.27 15.08                                                             
C  9.39 16.27 27.15                                                             
C  9.39 16.27 39.22                                                             
C  9.39 16.27 51.29                                                             
C 13.42 13.95  3.02                                                             
C 13.42 13.95 15.08                                                             
C 13.42 13.95 27.15                                                             
C 13.42 13.95 39.22                                                             
C 13.42 13.95 51.29                                                             
C 17.45 11.62  3.02                                                             
C 17.45 11.62 15.08                                                             
C 17.45 11.62 27.15                                                             
C 17.45 11.62 39.22                                                             
C 17.45 11.62 51.29                                                             
C 21.47  9.30  3.02                                                             
C 21.47  9.30 15.08                                                             
C 21.47  9.30 27.15                                                             
C 21.47  9.30 39.22                                                             
C 21.47  9.30 51.29                                                             
C 25.50  6.97  3.02                                                             
C 25.50  6.97 15.08                                                             
C 25.50  6.97 27.15                                                             
C 25.50  6.97 39.22                                                             
C 25.50  6.97 51.29                                                             
C 29.52  4.65  3.02                                                             
C 29.52  4.65 15.08                                                             
C 29.52  4.65 27.15                                                             
C 29.52  4.65 39.22                                                             
C 29.52  4.65 51.29                                                             
C 17.45 16.27  3.02                                                             
C 17.45 16.27 15.08                                                             
C 17.45 16.27 27.15                                                             
C 17.45 16.27 39.22                                                             
C 17.45 16.27 51.29                                                             
C 21.47 13.95  3.02                                                             
C 21.47 13.95 15.08                                                             
C 21.47 13.95 27.15                                                             
C 21.47 13.95 39.22                                                             
C 21.47 13.95 51.29                                                             
C 25.50 11.62  3.02                                                             
C 25.50 11.62 15.08                                                             
C 25.50 11.62 27.15                                                             
C 25.50 11.62 39.22                                                             
C 25.50 11.62 51.29                                                             
C 29.52  9.30  3.02                                                             
C 29.52  9.30 15.08                                                             
C 29.52  9.30 27.15                                                             
C 29.52  9.30 39.22                                                             
C 29.52  9.30 51.29                                                             
C 25.50 16.27  3.02                                                             
C 25.50 16.27 15.08                                                             
C 25.50 16.27 27.15                                                             
C 25.50 16.27 39.22                                                             
C 25.50 16.27 51.29                                                             
C 29.52 13.95  3.02                                                             
C 29.52 13.95 15.08                                                             
C 29.52 13.95 27.15                                                             
C 29.52 13.95 39.22                                                             
C 29.52 13.95 51.29                                                             
C  2.68  0.00  9.05                                                             
C  2.68  0.00 21.12                                                             
C  2.68  0.00 33.19                                                             
C  2.68  0.00 45.25                                                             
C  2.68  0.00 57.32                                                             
C  2.68  4.65  9.05                                                             
C  2.68  4.65 21.12                                                             
C  2.68  4.65 33.19                                                             
C  2.68  4.65 45.25                                                             
C  2.68  4.65 57.32                                                             
C  6.71  2.32  9.05                                                             
C  6.71  2.32 21.12                                                             
C  6.71  2.32 33.19                                                             
C  6.71  2.32 45.25                                                             
C  6.71  2.32 57.32                                                             
C 10.74  0.00  9.05                                                             
C 10.74  0.00 21.12                                                             
C 10.74  0.00 33.19                                                             
C 10.74  0.00 45.25                                                             
C 10.74  0.00 57.32                                                             
C  2.68  9.30  9.05                                                             
C  2.68  9.30 21.12                                                             
C  2.68  9.30 33.19                                                             
C  2.68  9.30 45.25                                                             
C  2.68  9.30 57.32                                                             
C  6.71  6.97  9.05                                                             
C  6.71  6.97 21.12                                                             
C  6.71  6.97 33.19                                                             
C  6.71  6.97 45.25                                                             
C  6.71  6.97 57.32                                                             
C 10.74  4.65  9.05                                                             
C 10.74  4.65 21.12                                                             
C 10.74  4.65 33.19                                                             
C 10.74  4.65 45.25                                                             
C 10.74  4.65 57.32                                                             
C 14.76  2.32  9.05                                                             
C 14.76  2.32 21.12                                                             
C 14.76  2.32 33.19                                                             
C 14.76  2.32 45.25                                                             
C 14.76  2.32 57.32                                                             
C 18.79  0.00  9.05                                                             
C 18.79  0.00 21.12                                                             
C 18.79  0.00 33.19                                                             
C 18.79  0.00 45.25                                                             
C 18.79  0.00 57.32                                                             
C  2.68 13.95  9.05                                                             
C  2.68 13.95 21.12                                                             
C  2.68 13.95 33.19                                                             
C  2.68 13.95 45.25                                                             
C  2.68 13.95 57.32                                                             
C  6.71 11.62  9.05                                                             
C  6.71 11.62 21.12                                                             
C  6.71 11.62 33.19                                                             
C  6.71 11.62 45.25                                                             
C  6.71 11.62 57.32                                                             
C 10.74  9.30  9.05                                                             
C 10.74  9.30 21.12                                                             
C 10.74  9.30 33.19                                                             
C 10.74  9.30 45.25                                                             
C 10.74  9.30 57.32                                                             
C 14.76  6.97  9.05                                                             
C 14.76  6.97 21.12                                                             
C 14.76  6.97 33.19                                                             
C 14.76  6.97 45.25                                                             
C 14.76  6.97 57.32                                                             
C 18.79  4.65  9.05                                                             
C 18.79  4.65 21.12                                                             
C 18.79  4.65 33.19                                                             
C 18.79  4.65 45.25                                                             
C 18.79  4.65 57.32                                                             
C 22.81  2.32  9.05                                                             
C 22.81  2.32 21.12                                                             
C 22.81  2.32 33.19                                                             
C 22.81  2.32 45.25                                                             
C 22.81  2.32 57.32                                                             
C 26.84  0.00  9.05                                                             
C 26.84  0.00 21.12                                                             
C 26.84  0.00 33.19                                                             
C 26.84  0.00 45.25                                                             
C 26.84  0.00 57.32                                                             
C  6.71 16.27  9.05                                                             
C  6.71 16.27 21.12                                                             
C  6.71 16.27 33.19                                                             
C  6.71 16.27 45.25                                                             
C  6.71 16.27 57.32                                                             
C 10.74 13.95  9.05                                                             
C 10.74 13.95 21.12                                                             
C 10.74 13.95 33.19                                                             
C 10.74 13.95 45.25                                                             
C 10.74 13.95 57.32                                                             
C 14.76 11.62  9.05                                                             
C 14.76 11.62 21.12                                                             
C 14.76 11.62 33.19                                                             
C 14.76 11.62 45.25                                                             
C 14.76 11.62 57.32                                                             
C 18.79  9.30  9.05                                                             
C 18.79  9.30 21.12                                                             
C 18.79  9.30 33.19                                                             
C 18.79  9.30 45.25                                                             
C 18.79  9.30 57.32                                                             
C 22.81  6.97  9.05                                                             
C 22.81  6.97 21.12                                                             
C 22.81  6.97 33.19                                                             
C 22.81  6.97 45.25                                                             
C 22.81  6.97 57.32                                                             
C 26.84  4.65  9.05                                                             
C 26.84  4.65 21.12                                                             
C 26.84  4.65 33.19                                                             
C 26.84  4.65 45.25                                                             
C 26.84  4.65 57.32                                                             
C 30.86  2.32  9.05                                                             
C 30.86  2.32 21.12                                                             
C 30.86  2.32 33.19                                                             
C 30.86  2.32 45.25                                                             
C 30.86  2.32 57.32                                                             
C 14.76 16.27  9.05                                                             
C 14.76 16.27 21.12                                                             
C 14.76 16.27 33.19                                                             
C 14.76 16.27 45.25                                                             
C 14.76 16.27 57.32                                                             
C 18.79 13.95  9.05                                                             
C 18.79 13.95 21.12                                                             
C 18.79 13.95 33.19                                                             
C 18.79 13.95 45.25                                                             
C 18.79 13.95 57.32                                                             
C 22.81 11.62  9.05                                                             
C 22.81 11.62 21.12                                                             
C 22.81 11.62 33.19                                                             
C 22.81 11.62 45.25                                                             
C 22.81 11.62 57.32                                                             
C 26.84  9.30  9.05                                                             
C 26.84  9.30 21.12                                                             
C 26.84  9.30 33.19                                                             
C 26.84  9.30 45.25                                                             
C 26.84  9.30 57.32                                                             
C 30.86  6.97  9.05                                                             
C 30.86  6.97 21.12                                                             
C 30.86  6.97 33.19                                                             
C 30.86  6.97 45.25                                                             
C 30.86  6.97 57.32                                                             
C 22.81 16.27  9.05                                                             
C 22.81 16.27 21.12                                                             
C 22.81 16.27 33.19                                                             
C 22.81 16.27 45.25                                                             
C 22.81 16.27 57.32                                                             
C 26.84 13.95  9.05                                                             
C 26.84 13.95 21.12                                                             
C 26.84 13.95 33.19                                                             
C 26.84 13.95 45.25                                                             
C 26.84 13.95 57.32                                                             
C 30.86 11.62  9.05                                                             
C 30.86 11.62 21.12                                                             
C 30.86 11.62 33.19                                                             
C 30.86 11.62 45.25                                                             
C 30.86 11.62 57.32                                                             
C 30.86 16.27  9.05                                                             
C 30.86 16.27 21.12                                                             
C 30.86 16.27 33.19                                                             
C 30.86 16.27 45.25                                                             
C 30.86 16.27 57.32                                                             
%ENDBLOCK POSITIONS_ABS                                                         

--------------------------------------------------------------------------------
-------------------------------- END INPUT FILE --------------------------------
--------------------------------------------------------------------------------


 
<<<<<<<<<<<<<<<<<<<<<<<<<<<<<<<<< Full system >>>>>>>>>>>>>>>>>>>>>>>>>>>>>>>>>>
<<<<<<<<<<<<<<<<<<<<<<<<<<< PAW Dataset information >>>>>>>>>>>>>>>>>>>>>>>>>>>
File: ~/pp/paw/c_pbe_abinit.paw; rc = 1.25 bohr; shape type =  3; rshape = 1.25 bohr;
  Atomic number:  6;  ionic charge:  4.000000
    Partial Wave 1: l = 0
    Partial Wave 2: l = 0
    Partial Wave 3: l = 1
    Partial Wave 4: l = 1
  Core charge supplied for Nonlinear Core Corrections
<<<<<<<<<<<<<<<<<<<<<<<<<<<<<<<<<<<<<<< >>>>>>>>>>>>>>>>>>>>>>>>>>>>>>>>>>>>>>>

-------------------------- Atom counting information ---------------------------
Symbol    Natoms    Nngwfs    Nprojs
  C        640      2560      5120
.......   ......    ......    ......
Totals:    640      2560      5120
--------------------------------------------------------------------------------

=============================== PSINC grid sizes ===============================
                      Simulation cell:   63 x  35 x 119
                              FFT-box:   63 x  35 x 117
                                  PPD:    7 x   5 x   1
Grid space d1=  0.511269841270a0 (KE cutoff=  29.06054Eh = 790.77748eV)
Grid space d2=  0.531142857143a0 (KE cutoff=  26.92659Eh = 732.70972eV)
Grid space d3=  0.507058823529a0 (KE cutoff=  29.54523Eh = 803.96650eV)
================================================================================
  
WARNING in cell_grid_distribute:
Average of less than one 23-slab per node, so workload cannot be
equally balanced between nodes.

********************* Fourier parallelisation information **********************
       Coarse grid (whole simulation cell) dimensions:     63    35   119
          Real-space ('12') slabs/node (min max mean):      2     3     2
         Recip-space ('23') slabs/node (min max mean):      0     1     0
********************************************************************************

********************* Fourier parallelisation information **********************
       Double grid (whole simulation cell) dimensions:    126    70   238
          Real-space ('12') slabs/node (min max mean):      5     6     5
         Recip-space ('23') slabs/node (min max mean):      1     2     1
********************************************************************************

Atom SCF Calculation for C  : Z (AE atom) =   6 : Z (PS atom) =   4
Config String: 2s2 2p2
Orbitals (num,occ):  2     2.00 2.00
Orbitals   (num,l):  2        0    1
Real-space Grid (nr,dr,rmax): 1293    0.0069659443    9.0000000000
Spherical Bessel Basis (nsws,lmax,cutoff):   37    2  161.4736382572
Confining potential (l,width,scale):  0    3.0000000000  100.0000000000
Confining potential (l,width,scale):  1    3.0000000000  100.0000000000
  1         -5.4966243538   -1.3415066196    4.5135257941   -1.6613421942
  2         -5.4660395227   -1.4172174419    4.4326892861   -1.6365362708
  3         -5.4759582348   -1.4337557188    4.4144498970   -1.6324663609
  4         -5.4843804720   -1.4365219414    4.4114201180   -1.6322033818
  5         -5.4882713954   -1.4381734139    4.4096331461   -1.6320227940
  6         -5.4902132675   -1.4390636620    4.4086785626   -1.6319270645
  7         -5.4912093711   -1.4395303631    4.4081823351   -1.6318789226
  8         -5.4917264140   -1.4397726342    4.4079268833   -1.6318551036
  9         -5.4919964206   -1.4398979410    4.4077958777   -1.6318434025
 10         -5.4921379132   -1.4399626875    4.4077287721   -1.6318376788
 11         -5.4922122245   -1.4399961532    4.4076943935   -1.6318348878
 12         -5.4922513136   -1.4400134684    4.4076767658   -1.6318335308
 13         -5.4922719001   -1.4400224400    4.4076677156   -1.6318328728
 14         -5.4922827535   -1.4400270959    4.4076630621   -1.6318325547
 15         -5.4922884809   -1.4400295164    4.4076606653   -1.6318324014
 16         -5.4922915059   -1.4400307770    4.4076594286   -1.6318323279
 17         -5.4922931051   -1.4400314347    4.4076587894   -1.6318322927
 18         -5.4922939512   -1.4400317785    4.4076584583   -1.6318322760
 19         -5.4922943993   -1.4400319585    4.4076582865   -1.6318322681
 20         -5.4922946368   -1.4400320529    4.4076581972   -1.6318322644
 21         -5.4922947627   -1.4400321025    4.4076581507   -1.6318322627
 22         -5.4922948296   -1.4400321287    4.4076581265   -1.6318322619
Atom SCF converged after  22 iterations to a total energy of     -5.49229483

Determining parallel strategy ...
... using space-filling curve
... NGWF load balancing: max     64;  min     64;  average     64
... Projector load balancing: max    128;  min    128;  average    128
... done
Calculating Ewald energy ...
              Ewald: real-space energy =    9529.001465
        Ewald: reciprocal-space energy =       0.042581
         Ewald: (sum_charge)**2 Energy =   11501.773302
         Ewald: (sum_charge**2) Energy =     909.295019
                          Ewald Energy =   -2882.024275
Basis initialisation ...... NGWF spheres initialised
... Projector spheres initialised
... NGWF tight boxes initialised
... Projector tight boxes initialised
... Tight-boxes gathered
... NGWF basis size (local,global):     692852  27896992
... PAW projector initialisation
... done

============================= Charge Augmentation ==============================
                           Aug box size:   11 x  11 x  11
================================================================================

========================== Sparse matrix information ===========================
                        Overlap matrix filling:  44.38%
                        Density kernel filling: 100.00%
              NGWF-Proj overlap matrix filling:  13.12%
                    Aug Overlap matrix filling:  47.81%
                    Hamiltonian matrix filling:  47.81%
                  NGWF diagonal matrix filling:   0.16%
                             KS matrix filling: 100.00% 
                           KSKS matrix filling: 100.00% 
================================================================================

Sparse matrix initialisation ... done
NGWF initialisation ...... done
============ Calculation of NGWF S^-1 using Hotelling algorithm ================ 
         Iteration  |  Frobenius norm and Maximum abs value    (of I-S*S_n^-1)   
               1       0.49242375E+02     0.97825948E+00
               2       0.48140940E+02     0.95833301E+00
               3       0.46453951E+02     0.92290791E+00
               4       0.44213270E+02     0.86484201E+00
               5       0.41486542E+02     0.77840025E+00
               6       0.38239409E+02     0.69219084E+00
               7       0.34715654E+02     0.64122082E+00
               8       0.31318413E+02     0.59867192E+00
               9       0.27839698E+02     0.55636546E+00
              10       0.23567364E+02     0.49381627E+00
              11       0.17973115E+02     0.39278945E+00
              12       0.11265475E+02     0.25302790E+00
              13       0.49952965E+01     0.11073356E+00
              14       0.11725890E+01     0.23986156E-01
              15       0.78239399E-01     0.13792337E-02
              16       0.45030228E-03     0.59591275E-05
              17       0.22552288E-07     0.18159052E-09
              18       0.85228416E-13     0.44408921E-14
================================================================================
Calculating core density ...
================================= Core Density =================================
               Core den box size:   21 x  21 x  21
================================================================================
 ... done
Up spin density kernel initialisation ...... done

Writing density kernel to file "3.1930128_GO_manual_4x64graphite.dkn" ... done

>>> Optimising kernel for current NGWFs:

--------------------------- Ensemble-DFT optimisation --------------------------
Running ScaLAPACK on   40 processor(s).

--------------------------------------------------------------------------------
  Iter                              Commutator    Free_energy(A=E-TS)     DeltaA
#    0                          0.000047718281   -3657.14518261112744  -3.66E+03

Step                       =       0.381966011250
Energy                     =   -3657.145143489856
Entropy (-TS)              =      -0.000039120676
Free energy (A=E-TS)       =   -3657.145182611127
Est. 0K Energy 0.5*(E+A)   =   -3657.145163050492
Residual Non-orthogonality =       0.000000000000
Residual N_electrons       =      -0.000000000594

Spin          Integrated_Ne            Fermi_level     Delta_Fermi_level
   1      2560.000000002498         0.237930689779              2.38E-01

                           Spin 1          
     Orb      H-eigenvalues     Occupancies
       1 |    -0.4879579255    1.0000000000 | 
                          ------
    1276 |     0.2050004388    0.9999695243 | 
    1277 |     0.2055924171    0.9999632604 | 
    1278 |     0.2056146041    0.9999630021 | 
    1279 |     0.2060346773    0.9999577543 | 
    1280 |     0.2066365126    0.9999489125 | 
                 - Gap at zero temperature -
    1281 |     0.2715907541    0.0000242030 | 
    1282 |     0.2715973148    0.0000241530 | 
    1283 |     0.2716952585    0.0000234174 | 
    1284 |     0.2718241419    0.0000224835 | 
    1285 |     0.2718307364    0.0000224367 | 
                          ------
    2560 |     1.0721565802    0.0000000000 | 

                       |  Abs_value |  Threshold | Converged
     Delta_Free_energy |   3.66E+03 |   1.00E-06 |        No
     Delta_Energy      |   3.66E+03 |   1.00E-04 |        No
     Delta_Entropy     |   3.91E-05 |   1.00E-04 |       Yes
     Commutator        |   4.77E-05 |   1.00E-05 |        No
     Delta_Fermi_level |   2.38E-01 |   1.00E-03 |        No

  Line search of the free energy minimum:
  Step_type        Step             Free_energy   Predicted_free_energy
.   Initial    0.000000    -3657.14518261112744
.    Trial1    0.381966    -3657.14744687792700
.    Trial2    0.618034    -3657.14720915716725
. Quadratic    0.455129    -3657.14750602292679    -3657.14750694089980

--------------------------------------------------------------------------------
  Iter                              Commutator    Free_energy(A=E-TS)     DeltaA
#    1                          0.000022744513   -3657.14750602292679  -2.32E-03

Step                       =       0.455128520257
Energy                     =   -3657.147468288117
Entropy (-TS)              =      -0.000037734464
Free energy (A=E-TS)       =   -3657.147506022927
Est. 0K Energy 0.5*(E+A)   =   -3657.147487155522
Residual Non-orthogonality =       0.000000000000
Residual N_electrons       =      -0.000000000346

Spin          Integrated_Ne            Fermi_level     Delta_Fermi_level
   1      2560.000000001439         0.240540140305              2.61E-03

                           Spin 1          
     Orb      H-eigenvalues     Occupancies
       1 |    -0.4862726652    1.0000000000 | 
                          ------
    1276 |     0.2075512627    0.9999700833 | 
    1277 |     0.2080357272    0.9999651381 | 
    1278 |     0.2080410746    0.9999650792 | 
    1279 |     0.2086175235    0.9999581077 | 
    1280 |     0.2090953392    0.9999512854 | 
                 - Gap at zero temperature -
    1281 |     0.2743026978    0.0000234323 | 
    1282 |     0.2743210277    0.0000232970 | 
    1283 |     0.2744378290    0.0000224534 | 
    1284 |     0.2746079366    0.0000212792 | 
    1285 |     0.2746541033    0.0000209712 | 
                          ------
    2560 |     1.0765935429    0.0000000000 | 

                       |  Abs_value |  Threshold | Converged
     Delta_Free_energy |   2.32E-03 |   1.00E-06 |        No
     Delta_Energy      |   2.32E-03 |   1.00E-04 |        No
     Delta_Entropy     |   1.39E-06 |   1.00E-04 |       Yes
     Commutator        |   2.27E-05 |   1.00E-05 |        No
     Delta_Fermi_level |   2.61E-03 |   1.00E-03 |        No

  Line search of the free energy minimum:
  Step_type        Step             Free_energy   Predicted_free_energy
.   Initial    0.000000    -3657.14750602292679
.    Trial1    0.455129    -3657.14783448273420
.    Trial2    0.663251    -3657.14731056415530
. Quadratic    0.301453    -3657.14795069421189    -3657.14794981411023

--------------------------------------------------------------------------------
  Iter                              Commutator    Free_energy(A=E-TS)     DeltaA
#    2                          0.000015264106   -3657.14795069421189  -4.45E-04

Step                       =       0.301453159316
Energy                     =   -3657.147913579799
Entropy (-TS)              =      -0.000037114400
Free energy (A=E-TS)       =   -3657.147950694212
Est. 0K Energy 0.5*(E+A)   =   -3657.147932137005
Residual Non-orthogonality =       0.000000000000
Residual N_electrons       =      -0.000000000013

Spin          Integrated_Ne            Fermi_level     Delta_Fermi_level
   1      2560.000000000052         0.241431735801              8.92E-04

                           Spin 1          
     Orb      H-eigenvalues     Occupancies
       1 |    -0.4856806453    1.0000000000 | 
                          ------
    1276 |     0.2083702830    0.9999707611 | 
    1277 |     0.2088866822    0.9999655827 | 
    1278 |     0.2088932154    0.9999655116 | 
    1279 |     0.2094304372    0.9999591356 | 
    1280 |     0.2099411356    0.9999519848 | 
                 - Gap at zero temperature -
    1281 |     0.2752529074    0.0000230026 | 
    1282 |     0.2752724592    0.0000228610 | 
    1283 |     0.2753899190    0.0000220286 | 
    1284 |     0.2755695803    0.0000208137 | 
    1285 |     0.2755732447    0.0000207896 | 
                          ------
    2560 |     1.0781782129    0.0000000000 | 

                       |  Abs_value |  Threshold | Converged
     Delta_Free_energy |   4.45E-04 |   1.00E-06 |        No
     Delta_Energy      |   4.45E-04 |   1.00E-04 |        No
     Delta_Entropy     |   6.20E-07 |   1.00E-04 |       Yes
     Commutator        |   1.53E-05 |   1.00E-05 |        No
     Delta_Fermi_level |   8.92E-04 |   1.00E-03 |       Yes

  Line search of the free energy minimum:
  Step_type        Step             Free_energy   Predicted_free_energy
.   Initial    0.000000    -3657.14795069421189
.    Trial1    0.301453    -3657.14812838498074
.    Trial2    0.568274    -3657.14791132755681
. Quadratic    0.270107    -3657.14813085515698    -3657.14813081073635

--------------------------------------------------------------------------------
  Iter                              Commutator    Free_energy(A=E-TS)     DeltaA
#    3                          0.000010713589   -3657.14813085515698  -1.80E-04

Step                       =       0.270107112622
Energy                     =   -3657.148094110255
Entropy (-TS)              =      -0.000036744636
Free energy (A=E-TS)       =   -3657.148130855157
Est. 0K Energy 0.5*(E+A)   =   -3657.148112482706
Residual Non-orthogonality =       0.000000000000
Residual N_electrons       =      -0.000000000266

Spin          Integrated_Ne            Fermi_level     Delta_Fermi_level
   1      2560.000000001099         0.241993978833              5.62E-04

                           Spin 1          
     Orb      H-eigenvalues     Occupancies
       1 |    -0.4853052140    1.0000000000 | 
                          ------
    1276 |     0.2088967469    0.9999710896 | 
    1277 |     0.2094175914    0.9999659215 | 
    1278 |     0.2094244161    0.9999658480 | 
    1279 |     0.2099557591    0.9999596093 | 
    1280 |     0.2104711514    0.9999524710 | 
                 - Gap at zero temperature -
    1281 |     0.2758474373    0.0000227692 | 
    1282 |     0.2758669640    0.0000226293 | 
    1283 |     0.2759873646    0.0000217851 | 
    1284 |     0.2761648789    0.0000205976 | 
    1285 |     0.2761657189    0.0000205921 | 
                          ------
    2560 |     1.0791806031    0.0000000000 | 

                       |  Abs_value |  Threshold | Converged
     Delta_Free_energy |   1.80E-04 |   1.00E-06 |        No
     Delta_Energy      |   1.81E-04 |   1.00E-04 |        No
     Delta_Entropy     |   3.70E-07 |   1.00E-04 |       Yes
     Commutator        |   1.07E-05 |   1.00E-05 |        No
     Delta_Fermi_level |   5.62E-04 |   1.00E-03 |       Yes

  Line search of the free energy minimum:
  Step_type        Step             Free_energy   Predicted_free_energy
.   Initial    0.000000    -3657.14813085515698
.    Trial1    0.270107    -3657.14821801468815
.    Trial2    0.548901    -3657.14813699650858
. Quadratic    0.279458    -3657.14821810855574    -3657.14821811237562

--------------------------------------------------------------------------------
  Iter                              Commutator    Free_energy(A=E-TS)     DeltaA
#    4                          0.000007887182   -3657.14821810855574  -8.73E-05

Step                       =       0.279457607903
Energy                     =   -3657.148181637281
[...]
 C   160 -- C   385       -0.10      5.37000
 C   159 -- C   384       -0.10      5.37000
 C   158 -- C   383       -0.10      5.37000
 C   157 -- C   382       -0.10      5.37000
 C   156 -- C   381       -0.10      5.37000
 C   155 -- C   355       -0.10      5.37000
 C   154 -- C   354       -0.10      5.37000
 C   153 -- C   353       -0.10      5.37000
 C   152 -- C   352       -0.10      5.37000
 C   151 -- C   351       -0.10      5.37000
 C   140 -- C   335       -0.10      5.37000
 C   139 -- C   334       -0.10      5.37000
 C   138 -- C   333       -0.10      5.37000
 C   137 -- C   332       -0.10      5.37000
 C   136 -- C   331       -0.10      5.37000
 C   115 -- C   325       -0.10      5.37000
 C   114 -- C   324       -0.10      5.37000
 C   113 -- C   323       -0.10      5.37000
 C   112 -- C   322       -0.10      5.37000
 C   111 -- C   321       -0.10      5.37000
 C   219 -- C   569       -0.10      5.37202
 C   218 -- C   568       -0.10      5.37202
 C   217 -- C   567       -0.10      5.37202
 C   216 -- C   566       -0.10      5.37202
 C   285 -- C   580       -0.10      5.37202
 C   284 -- C   579       -0.10      5.37202
 C   283 -- C   578       -0.10      5.37202
 C   282 -- C   577       -0.10      5.37202
 C   281 -- C   576       -0.10      5.37202
 C   260 -- C   605       -0.10      5.37202
 C   259 -- C   604       -0.10      5.37202
 C   258 -- C   603       -0.10      5.37202
 C   257 -- C   602       -0.10      5.37202
 C   256 -- C   601       -0.10      5.37202
 C   250 -- C   540       -0.10      5.37202
 C   249 -- C   539       -0.10      5.37202
 C   248 -- C   538       -0.10      5.37202
 C   247 -- C   537       -0.10      5.37202
 C   246 -- C   536       -0.10      5.37202
 C   220 -- C   570       -0.10      5.37202
 C   220 -- C   515       -0.10      5.37202
 C   219 -- C   514       -0.10      5.37202
 C   218 -- C   513       -0.10      5.37202
 C   217 -- C   512       -0.10      5.37202
 C   216 -- C   511       -0.10      5.37202
 C    95 -- C   425       -0.10      5.37202
 C    94 -- C   424       -0.10      5.37202
 C    93 -- C   423       -0.10      5.37202
 C   195 -- C   540       -0.10      5.37202
 C   195 -- C   500       -0.10      5.37202
 C   194 -- C   539       -0.10      5.37202
 C    92 -- C   422       -0.10      5.37202
 C   194 -- C   499       -0.10      5.37202
 C   193 -- C   538       -0.10      5.37202
 C   193 -- C   498       -0.10      5.37202
 C   192 -- C   537       -0.10      5.37202
 C    91 -- C   421       -0.10      5.37202
 C   192 -- C   497       -0.10      5.37202
 C   191 -- C   536       -0.10      5.37202
 C   191 -- C   496       -0.10      5.37202
 C    85 -- C   355       -0.10      5.37202
 C   180 -- C   515       -0.10      5.37202
 C    84 -- C   354       -0.10      5.37202
 C   179 -- C   514       -0.10      5.37202
 C    83 -- C   353       -0.10      5.37202
 C   178 -- C   513       -0.10      5.37202
 C   177 -- C   512       -0.10      5.37202
 C    82 -- C   352       -0.10      5.37202
 C   176 -- C   511       -0.10      5.37202
 C    81 -- C   351       -0.10      5.37202
 C   120 -- C   395       -0.10      5.37202
 C    55 -- C   385       -0.10      5.37202
 C   119 -- C   394       -0.10      5.37202
 C   118 -- C   393       -0.10      5.37202
 C   117 -- C   392       -0.10      5.37202
 C    54 -- C   384       -0.10      5.37202
 C   116 -- C   391       -0.10      5.37202
 C    53 -- C   383       -0.10      5.37202
 C    52 -- C   382       -0.10      5.37202
 C    51 -- C   381       -0.10      5.37202
 C   205 -- C   550       -0.10      5.37202
 C   204 -- C   549       -0.10      5.37202
 C   203 -- C   548       -0.10      5.37202
 C   202 -- C   547       -0.10      5.37202
 C   201 -- C   546       -0.10      5.37202
 C    95 -- C   365       -0.10      5.37202
 C    94 -- C   364       -0.10      5.37202
 C    93 -- C   363       -0.10      5.37202
 C    92 -- C   362       -0.10      5.37202
 C    91 -- C   361       -0.10      5.37202
 C    65 -- C   395       -0.10      5.37202
 C    64 -- C   394       -0.10      5.37202
 C    63 -- C   393       -0.10      5.37202
 C    30 -- C   355       -0.10      5.37202
 C    62 -- C   392       -0.10      5.37202
 C    61 -- C   391       -0.10      5.37202
 C    29 -- C   354       -0.10      5.37202
 C   260 -- C   550       -0.10      5.37202
 C   259 -- C   549       -0.10      5.37202
 C    28 -- C   353       -0.10      5.37202
 C   258 -- C   548       -0.10      5.37202
 C   257 -- C   547       -0.10      5.37202
 C   256 -- C   546       -0.10      5.37202
 C    27 -- C   352       -0.10      5.37202
 C    26 -- C   351       -0.10      5.37202
 C    55 -- C   335       -0.10      5.37202
 C    54 -- C   334       -0.10      5.37202
 C    53 -- C   333       -0.10      5.37202
 C   230 -- C   580       -0.10      5.37202
 C   230 -- C   525       -0.10      5.37202
 C   229 -- C   579       -0.10      5.37202
 C   229 -- C   524       -0.10      5.37202
 C   228 -- C   578       -0.10      5.37202
 C    52 -- C   332       -0.10      5.37202
 C   228 -- C   523       -0.10      5.37202
 C   227 -- C   577       -0.10      5.37202
 C   227 -- C   522       -0.10      5.37202
 C   226 -- C   576       -0.10      5.37202
 C   226 -- C   521       -0.10      5.37202
 C    51 -- C   331       -0.10      5.37202
 C    23 -- C   478       -0.10      5.37202
 C    49 -- C   469       -0.10      5.37202
 C    11 -- C   331       -0.10      5.37202
 C    48 -- C   468       -0.10      5.37202
 C    47 -- C   467       -0.10      5.37202
 C    22 -- C   477       -0.10      5.37202
 C    46 -- C   466       -0.10      5.37202
 C    21 -- C   476       -0.10      5.37202
 C    40 -- C   365       -0.10      5.37202
 C    39 -- C   364       -0.10      5.37202
 C    38 -- C   363       -0.10      5.37202
 C    37 -- C   362       -0.10      5.37202
 C    36 -- C   361       -0.10      5.37202
 C    15 -- C   335       -0.10      5.37202
 C    65 -- C   345       -0.10      5.37202
 C    64 -- C   344       -0.10      5.37202
 C    63 -- C   343       -0.10      5.37202
 C    30 -- C   325       -0.10      5.37202
 C    14 -- C   334       -0.10      5.37202
 C    62 -- C   342       -0.10      5.37202
 C    61 -- C   341       -0.10      5.37202
 C    29 -- C   324       -0.10      5.37202
 C    28 -- C   323       -0.10      5.37202
 C    13 -- C   333       -0.10      5.37202
 C    27 -- C   322       -0.10      5.37202
 C    26 -- C   321       -0.10      5.37202
 C    25 -- C   480       -0.10      5.37202
 C    12 -- C   332       -0.10      5.37202
 C    24 -- C   479       -0.10      5.37202
 C    50 -- C   470       -0.10      5.37202
 C    24 -- C   449       -0.10      5.37202
 C     6 -- C   416       -0.10      5.37202
 C    23 -- C   448       -0.10      5.37202
 C    22 -- C   447       -0.10      5.37202
 C    10 -- C   470       -0.10      5.37202
 C     5 -- C   450       -0.10      5.37202
 C    21 -- C   446       -0.10      5.37202
 C    10 -- C   420       -0.10      5.37202
 C     9 -- C   469       -0.10      5.37202
 C     9 -- C   419       -0.10      5.37202
 C     8 -- C   468       -0.10      5.37202
 C     4 -- C   449       -0.10      5.37202
 C   150 -- C   440       -0.10      5.37202
 C   149 -- C   439       -0.10      5.37202
 C   148 -- C   438       -0.10      5.37202
 C   147 -- C   437       -0.10      5.37202
 C     8 -- C   418       -0.10      5.37202
 C   146 -- C   436       -0.10      5.37202
 C     2 -- C   447       -0.10      5.37202
 C   135 -- C   460       -0.10      5.37202
 C     7 -- C   467       -0.10      5.37202
 C   134 -- C   459       -0.10      5.37202
 C   133 -- C   458       -0.10      5.37202
 C   132 -- C   457       -0.10      5.37202
 C   131 -- C   456       -0.10      5.37202
 C     7 -- C   417       -0.10      5.37202
 C     1 -- C   446       -0.10      5.37202
 C     6 -- C   466       -0.10      5.37202
 C    25 -- C   450       -0.10      5.37202
 C     3 -- C   448       -0.10      5.37202
 C   106 -- C   436       -0.10      5.37202
 C   106 -- C   376       -0.10      5.37202
 C    80 -- C   410       -0.10      5.37202
 C    79 -- C   409       -0.10      5.37202
 C    78 -- C   408       -0.10      5.37202
 C    77 -- C   407       -0.10      5.37202
 C    76 -- C   406       -0.10      5.37202
 C   135 -- C   410       -0.10      5.37202
 C   134 -- C   409       -0.10      5.37202
 C   133 -- C   408       -0.10      5.37202
 C   132 -- C   407       -0.10      5.37202
 C   131 -- C   406       -0.10      5.37202
 C   110 -- C   440       -0.10      5.37202
 C   110 -- C   380       -0.10      5.37202
 C   109 -- C   439       -0.10      5.37202
 C   109 -- C   379       -0.10      5.37202
 C   108 -- C   438       -0.10      5.37202
 C   108 -- C   378       -0.10      5.37202
 C   107 -- C   437       -0.10      5.37202
 C   107 -- C   377       -0.10      5.37202
 C   215 -- C   635       -0.10      5.38000
 C   214 -- C   634       -0.10      5.38000
 C   213 -- C   633       -0.10      5.38000
 C   212 -- C   632       -0.10      5.38000
 C   211 -- C   631       -0.10      5.38000
 C   190 -- C   620       -0.10      5.38000
 C   189 -- C   619       -0.10      5.38000
 C   188 -- C   618       -0.10      5.38000
 C   187 -- C   617       -0.10      5.38000
 C   186 -- C   616       -0.10      5.38000
 C   175 -- C   595       -0.10      5.38000
 C   174 -- C   594       -0.10      5.38000
 C   173 -- C   593       -0.10      5.38000
 C   172 -- C   592       -0.10      5.38000
 C   171 -- C   591       -0.10      5.38000
 C   245 -- C   640       -0.10      5.38000
 C   244 -- C   639       -0.10      5.38000
 C   243 -- C   638       -0.10      5.38000
 C   242 -- C   637       -0.10      5.38000
 C   241 -- C   636       -0.10      5.38000
==================================================


=================== Orbital energy and occupancy information ===================

      Total number of orbitals:    2560
        Occupancy sum (kernel):    1280.000000000
   Occupancy sum (eigenvalues):    1280.000000000
                 HOMO-LUMO gap:       0.062287835 Eh
                 Mid-gap level:       0.283289357 Eh

                        Orbital | Energy (Eh) | Occupancy
                            1    -0.445748713   1.0000000
                        .......   ...........   .........
                         1271     0.246635948   0.9999877
                         1272     0.246701584   0.9999875
                         1273     0.247106787   0.9999858
                         1274     0.247172319   0.9999855
                         1275     0.251108373   0.9999496
                         1276     0.251117663   0.9999495
                         1277     0.251550625   0.9999421
                         1278     0.251559759   0.9999419
                         1279     0.251721221   0.9999388
                         1280     0.252145440   0.9999300
                        ....... -- gap at 0K -- .........
                         1281     0.314433275   0.0000409
                         1282     0.314454060   0.0000406
                         1283     0.314692384   0.0000377
                         1284     0.314712965   0.0000374
                         1285     0.315382714   0.0000304
                         1286     0.315388453   0.0000304
                         1287     0.315659282   0.0000279
                         1288     0.315665030   0.0000279
                         1289     0.316061747   0.0000246
                         1290     0.316344947   0.0000225
                        .......   ...........   .........
                         2560     1.174890486   0.0000000

================================================================================

===================== Writing canonical molecular orbitals =====================
| Orbital  Energy (eV)  Norm     |
| HOMO      6.86122653  1.000000 | Writing "3.1930128_GO_manual_4x64graphite_HOMO.cube" ... done
Writing "3.1930128_GO_manual_4x64graphite_HOMO.dx" ... done
| LUMO      8.55616478  1.000000 | Writing "3.1930128_GO_manual_4x64graphite_LUMO.cube" ... done
Writing "3.1930128_GO_manual_4x64graphite_LUMO.dx" ... done
================================================================================
 
===================== Density of States (DOS) calculation ======================
Writing "3.1930128_GO_manual_4x64graphite_DOS.txt" ...  done
================================================================================
 
Writing bands to file "3.1930128_GO_manual_4x64graphite.val_bands" ... done
 
================ Projected Density of States (pDOS) calculation ================
 
Constructing AM resolved functions  ...... done
Writing NGWF plot files in formats: CUBE DX ...  done
 
Performing overlap integrals ...  done
 
Computing pDOS weights ...  done
 
All bands spilling parameter =   3.92 %
Occupancy-weighted spilling parameter =   0.85 %
 
 => Outputting data for OptaDOS <=
 
Writing pDOS weights to file "3.1930128_GO_manual_4x64graphite.val_pdos_bin" ... done
 
Writing band gradients to file "3.1930128_GO_manual_4x64graphite.val_dome_bin" ... done
 
Writing Castep output cell file to "3.1930128_GO_manual_4x64graphite-out.cell" ... done
 
 => Computing Gaussian smeared pDOS <= 
Writing "3.1930128_GO_manual_4x64graphite_PDOS.txt" ...  done
 
 => Computing Occupancy-weighted Gaussian smeared pDOS <= 
Writing "3.1930128_GO_manual_4x64graphite_occ_PDOS.txt" ...  done
  => Band centres: 
 S band centre of group 1:  -14.748765 eV
 P band centre of group 1:   -7.611419 eV
  Band centres done. <=
  => Integrated number of electrons in each AM band: 
 S num electrons of group 1:  577.574323
 P num electrons of group 1: 1960.600733
  Integrated number of electrons done. <=
================================================================================

------------------------------ TIMING INFORMATION ------------------------------
AVERAGE TIME:    4478.563s on     40 node(s)                                    
TOTAL TIME:      4478.565s on     40 node(s)                                    
================= AVERAGE TIMINGS FROM ALL NODES (CUMULATIVE) ==================
|| TAG                                    #calls    cpu time   %total  Gflops ||
|| work_imbalance                       :     1        0.00s   0.000%  ------ ||
|| paw_tcore_hartree_on_grid            :     1        0.01s   0.000%  ------ ||
|| paw_tcore_density                    :     1        0.01s   0.000%  ------ ||
|| paw_sphere_density_on_grid           :     1        0.01s   0.000%  ------ ||
|| sparse_set_to_garbage                :   183        0.03s   0.001%  ------ ||
|| paw_dij_hartree                      :   389        0.05s   0.001%  ------ ||
|| pseudo_make_structure_factor         :     1        0.06s   0.001%  ------ ||
|| basis_extract_function_from_box      :  2048        0.09s   0.002%  ------ ||
|| paw_species_calc_proj_prec_mat       :     1        0.12s   0.003%  ------ ||
|| paw_dataset_init                     :     1        0.19s   0.004%  ------ ||
|| density_init_guess_real              :     1        0.28s   0.006%  ------ ||
|| ngwfs_initialise_from_radial         :     2        0.67s   0.015%  ------ ||
|| restart_kernel_write                 :    17        0.96s   0.022%  ------ ||
|| sparse_init                          :     1        0.96s   0.022%  ------ ||
|| dense_normal_eigensolve              :     1        1.02s   0.023%  ------ ||
|| hartree_on_grid                      :   292        1.38s   0.031%  ------ ||
|| ewald_calculate_energy               :     1        2.32s   0.052%  ------ ||
|| projectors_init_fftbox_recip         :   161        3.14s   0.070%  ------ ||
|| fourier_apply_box_pair               :  3040        5.03s   0.112% 560.696 ||
|| basis_copy_function_to_box           : 27648        5.95s   0.133%  ------ ||
|| augmentation_screen_dij              :   299        6.60s   0.147%  ------ ||
|| sw_init                              :     1        6.73s   0.150%  ------ ||
|| sparse_embed_hotelling_invert_embed  :    31        9.67s   0.216%  ------ ||
|| ngwf_gradient_coeffs                 :    16       12.69s   0.283%  ------ ||
|| cell_grid_extract_box_real           : 11708       16.93s   0.378%  ------ ||
|| fourier_apply_cell_backward          :  9023       16.95s   0.379%  59.283 ||
|| fourier_apply_cell_forward           :  8440       17.95s   0.401%  52.378 ||
|| sparse_trace                         :  3530       20.38s   0.455%  ------ ||
|| cell_grid_deposit_box_real           : 37552       25.45s   0.568%  ------ ||
|| paw_dij_xc                           :   389       25.63s   0.572%  ------ ||
|| aug_nonlocal_mat                     :   373       39.27s   0.877%  ------ ||
|| density_fftbox_deposit_to_cell       : 18688       51.92s   1.159%  ------ ||
|| augmentation_density_on_grid         :   292       54.44s   1.216%  ------ ||
|| eigenstates_pdos                     :     1       54.62s   1.220%  ------ ||
|| eigenstates_calculate                :     1       58.77s   1.312%  ------ ||
|| function_ops_brappd_ketppd           :    64       67.17s   1.500%  ------ ||
|| hamiltonian_energy_components        :     4       68.92s   1.539%  ------ ||
|| nlxc_vdw_energy                      :   582       71.93s   1.606%  ------ ||
|| projectors_func_ovlp_box             :    32       78.13s   1.744%  ------ ||
|| xc_energy_potential                  :   291       82.80s   1.849%  ------ ||
|| properties_calculate                 :     1      104.34s   2.330%  ------ ||
|| integrals_kinetic                    :    31      118.86s   2.654%  ------ ||
|| dense_eigensolve                     :   256      129.06s   2.882%  ------ ||
|| potential_apply_to_ngwf_batch        :   368      145.81s   3.256%  ------ ||
|| restart_ngwfs_tightbox_output        :    15      151.38s   3.380%  ------ ||
|| sparse_product                       :  3542      155.19s   3.465%  ------ ||
|| basis_dot_function_with_box          : 9.193M     248.80s   5.555%  ------ ||
|| fourier_apply_box                    : 86944      270.41s   6.038% 979.110 ||
|| edft_diag_ngwf_ham                   :   255      286.01s   6.386%  ------ ||
|| projectors_gradient_batch            :    64      301.47s   6.731%  ------ ||
|| integrals_locpot_mat_els_batch       :   368      358.05s   7.995%  ------ ||
|| density_fftbox_interpolate_multiply  : 18688      362.14s   8.086%  ------ ||
|| projectors_grad_precond_batch        :    64      443.17s   9.895%  ------ ||
|| density_batch_interp_deposit         :  1168      460.75s  10.288%  ------ ||
|| integrals_locpot_dbl_grid            :    92      505.80s  11.294%  ------ ||
|| edft_apply_smearing_operator         :   255      559.05s  12.483%  ------ ||
|| basis_add_function_to_box            : 25.88M     671.28s  14.989%  ------ ||
|| ngwf_gradient_build_batch            :    64      793.20s  17.711%  ------ ||
|| density_batch_row_sums               :  1168     1021.86s  22.817%  ------ ||
|| ngwf_gradient_batch                  :    64     1057.35s  23.609%  ------ ||
|| ngwf_gradient_lnv                    :    16     1090.84s  24.357%  ------ ||
|| density_on_dbl_grid                  :   292     1497.96s  33.447%  ------ ||
|| hamiltonian_lhxc_calculate           :   286     1607.09s  35.884%  ------ ||
|| edft_calculate                       :    16     2647.08s  59.105%  ------ ||
|| ngwf_cg_optimise                     :     1     4347.43s  97.072%  ------ ||
|| total_time                           :     1     4478.56s 100.000%  ------ ||
================================================================================
Overhead of generating timer report: 
- 0 ms averaging over threads,
- 6 ms ensuring consistency across MPI ranks,
- 0 ms printing in order.

Job completed: 26-02-2020 00:38 (-0000)

