 +---------------------------------------------------------------+
 |                                                               |
 |        ####### #     # ####### ####### ####### ######         |
 |        #     # ##    # #          #    #       #     #        |
 |        #     # # #   # #          #    #       #     #        |
 |        #     # #  #  # #####      #    #####   ######         |
 |        #     # #   # # #          #    #       #              |
 |        #     # #    ## #          #    #       #              |
 |        ####### #     # #######    #    ####### #              |
 |                                                               |
 |        Linear-Scaling Ab Initio Total Energy Program          |
 |                                                               |
 |          Release for academic collaborators of ODG            |
 |                                             Version 5.3.2.12  |
 |                                                               |
 +---------------------------------------------------------------+
 |                                                               |
 |  Authors:                                                     |
 |  Jacek Dziedzic, Peter D. Haynes, Nicholas D. M. Hine,        |
 |  Arash. A. Mostofi, Mike C. Payne and Chris-Kriton Skylaris   |
 |                                                               |
 |  Contributors:                                                |
 |  J. Aarons, L. Andrinopoulos, P. W. Avraam, R. A. Bell,       |
 |  A. Bhandari, G. A. Bramley, R. J. Charlton, S. J. Clark,     |
 |  R. J. Clements, G. C. Constantinescu, F. Corsetti,           |
 |  N. Corsini, O. Dieguez, S. M. M. Dubois, K. K. B. Duff,      |
 |  J. M. Escartin, A. Greco, H. Helal, Q. O. Hill, L. P. Lee,   |
 |  J.-H. Li, E. B. Linscott, G. Moynihan, D. D. O`Regan,        |
 |  O. K. Okan, M. J. S. Phipps, C. J. Pickard,                  |
 |  J. C. A. Prentice, M. I. J. Probert, L. E. Ratcliff,         |
 |  M. Robinson, A. Ruiz Serrano, J. S. Spencer, E. W. Tait,     |
 |  G. Teobaldi, D. Turban, V. Vitale, K. A. Wilkinson,          |
 |  C. Weber, J. C. Womack, N. Yeung and T. J. Zuehlsdorff       |
 |                                                               |
 |                                   Copyright (c) 2004-2020     |
 |                                                               |
 |  Please cite:                                                 |
 |  "Introducing ONETEP: Linear-scaling density functional       |
 |   simulations on parallel computers".                         |
 |   C.-K. Skylaris, P. D. Haynes, A. A. Mostofi, M. C. Payne.   |
 |   J. Chem. Phys. 122 084119 (2005).                           |
 |                                                               |
 |          in all publications arising from your use of ONETEP. |
 |                                                               |
 +---------------------------------------------------------------+
 |                                                               |
 |   ONETEP is based on developments described in the following  |
 |   publications:                                               |
 |                                                               |
 |  "Nonorthogonal generalized Wannier function pseudopotential  |
 |   plane-wave method".                                         |
 |   C.-K. Skylaris, A. A. Mostofi, P. D. Haynes, O. Dieguez,    |
 |   M. C. Payne.                                                |
 |   Phys. Rev. B 66 035119 (2002).                              |
 |                                                               |
 |  "Preconditioned iterative minimization for linear-scaling    |
 |   electronic structure calculations".                         |
 |   A. A. Mostofi, P. D. Haynes, C.-K. Skylaris, M. C. Payne.   |
 |   J. Chem. Phys. 119(17), pp.8842-8848 (2003).                |
 |                                                               |
 |  "Total-energy calculations on a real space grid with         |
 |   localized functions and a plane-wave basis".                |
 |   A. A. Mostofi, C.-K. Skylaris, P. D. Haynes, M. C. Payne.   |
 |   Comput. Phys. Commun. 147, pp.788-802 (2002).               |
 |                                                               |
 |  "Accurate kinetic energy evaluation in electronic structure  |
 |   calculations with localized functions on real space grids"  |
 |   C.-K. Skylaris, A. A. Mostofi, P. D. Haynes, C. J. Pickard, |
 |   M. C. Payne.                                                |
 |   Comput. Phys. Commun. 140, pp.315-322 (2001).               |
 |                                                               |
 |  "Accurate ionic forces and geometry optimization in linear-  |
 |   scaling density-functional theory with local orbitals"      |
 |   N. D. M. Hine, M. Robinson, P. D. Haynes, C.-K. Skylaris,   |
 |   M. C. Payne, and A. A. Mostofi.                             |
 |   Phys. Rev. B 83 195102 (2011).                              |
 |                                                               |
 +---------------------------------------------------------------+

Job started: 25-02-2020 23:36 (-0000)
 
Reading parameters from file "3.219844_GO_manual_4x64graphite.dat" ...

WARNING: "cutoff_energy" not specified, but "psinc_spacing" specified.
         Using the latter to set the KE cutoff energy to  732.32021eV,
         thus *overriding* the default.

... done

If your calculation crashes here, before "Checking processes and threads..."
is displayed, then your stack size is insufficient.
If so, use "ulimit -s unlimited" at runtime.
You can disable this check with "check_stack_size F".

Checking processes and threads...
   Determining the default number of threads...
      No default threads set at compilation time: defaulting to 1.
      OpenMP library call suggests 4 threads.
      Hybrid MPI-OpenMP compilation detected.
      Number of MPI processes > 1.
      OMP_NUM_THREADS environment variable present and
      its value matches the one obtained from the OpenMP library call.
      Using this value as default.
      Default threads: 4
      Default applies to threads_max and threads_num_fftboxes.
      Settings in the input file override this default.
   ... done

   Running with 40 MPI processes.
   There are 10 MPI processes running on the same node as the root process.
   Each MPI process is using: 
               1 threads for simulation cell FFTs.
               1 threads for parallel FFT box operations.
               4 threads for loops over batched FFT box operations.
               4 threads in other parallel regions.
... done

Basic input checks...
Resetting ngwf_cg_rotate to TRUE for EDFT calculations
... done

Reading geometry and species blocks from file "3.219844_GO_manual_4x64graphite.dat" ...
    
  PSINC grid spacing along a1 set to   0.511215680000a0 from input file.
  PSINC grid spacing along a2 set to   0.531284090000a0 from input file.
  PSINC grid spacing along a3 set to   0.507052980000a0 from input file.
  Number of PPD points along a3 set to 1.  This is 
  the default value, it may have been provided also in the input file.
... done
 Writing xyz coordinates to file "3.219844_GO_manual_4x64graphite.xyz" ... done


--------------------------------------------------------------------------------
---------------------------------- INPUT FILE ----------------------------------
--------------------------------------------------------------------------------

task : singlepoint                                                              
do_properties : true                                                            
dx_format T                                                                     
edft T                                                                          
output_detail VERBOSE                                                           
write_xyz T                                                                     
xc_functional VDWDF                                                             
PSINC_SPACING 0.51121568 0.53128409 0.50705298                                  
paw T                                                                           
pdos_max_l = 2                                                                  
dos_smear  0.1 eV                                                               
popn_calculate T                                                                
PDOS_PSEUDOATOMIC T                                                             
PDOS_REDUCE_SWS F                                                               
PDOS_CONSTRUCT_BASIS F                                                          
PDOS_LOWDIN T                                                                   
PDOS_ORTH_ATOM_BLOCKS F                                                         
PDOS_LCAO_OPTIMIZE F                                                            
pdos_optados_output T                                                           
homo_plot 0                                                                     
lumo_plot 0                                                                     
homo_dens_plot -1                                                               
lumo_dens_plot -1                                                               
%BLOCK SPECIES                                                                  
C C 6 4 9.0                                                                     
%ENDBLOCK SPECIES                                                               
%BLOCK SPECIES_POT                                                              
C "~/pp/paw/c_pbe_abinit.paw"                                                   
%ENDBLOCK SPECIES_POT                                                           
%BLOCK SPECIES_ATOMIC_SET                                                       
C "SOLVE conf=2s2 2p2"                                                          
%ENDBLOCK SPECIES_ATOMIC_SET                                                    
%BLOCK LATTICE_CART                                                             
32.21  0.00  0.00                                                               
0.00 18.59  0.00                                                                
0.00  0.00 60.85                                                                
%ENDBLOCK LATTICE_CART                                                          
%BLOCK POSITIONS_ABS                                                            
C  0.00  0.00  3.04                                                             
C  0.00  0.00 15.21                                                             
C  0.00  0.00 27.38                                                             
C  0.00  0.00 39.55                                                             
C  0.00  0.00 51.72                                                             
C  0.00  4.65  3.04                                                             
C  0.00  4.65 15.21                                                             
C  0.00  4.65 27.38                                                             
C  0.00  4.65 39.55                                                             
C  0.00  4.65 51.72                                                             
C  4.03  2.32  3.04                                                             
C  4.03  2.32 15.21                                                             
C  4.03  2.32 27.38                                                             
C  4.03  2.32 39.55                                                             
C  4.03  2.32 51.72                                                             
C  8.05  0.00  3.04                                                             
C  8.05  0.00 15.21                                                             
C  8.05  0.00 27.38                                                             
C  8.05  0.00 39.55                                                             
C  8.05  0.00 51.72                                                             
C  0.00  9.30  3.04                                                             
C  0.00  9.30 15.21                                                             
C  0.00  9.30 27.38                                                             
C  0.00  9.30 39.55                                                             
C  0.00  9.30 51.72                                                             
C  4.03  6.97  3.04                                                             
C  4.03  6.97 15.21                                                             
C  4.03  6.97 27.38                                                             
C  4.03  6.97 39.55                                                             
C  4.03  6.97 51.72                                                             
C  8.05  4.65  3.04                                                             
C  8.05  4.65 15.21                                                             
C  8.05  4.65 27.38                                                             
C  8.05  4.65 39.55                                                             
C  8.05  4.65 51.72                                                             
C 12.08  2.32  3.04                                                             
C 12.08  2.32 15.21                                                             
C 12.08  2.32 27.38                                                             
C 12.08  2.32 39.55                                                             
C 12.08  2.32 51.72                                                             
C 16.10  0.00  3.04                                                             
C 16.10  0.00 15.21                                                             
C 16.10  0.00 27.38                                                             
C 16.10  0.00 39.55                                                             
C 16.10  0.00 51.72                                                             
C  0.00 13.95  3.04                                                             
C  0.00 13.95 15.21                                                             
C  0.00 13.95 27.38                                                             
C  0.00 13.95 39.55                                                             
C  0.00 13.95 51.72                                                             
C  4.03 11.62  3.04                                                             
C  4.03 11.62 15.21                                                             
C  4.03 11.62 27.38                                                             
C  4.03 11.62 39.55                                                             
C  4.03 11.62 51.72                                                             
C  8.05  9.30  3.04                                                             
C  8.05  9.30 15.21                                                             
C  8.05  9.30 27.38                                                             
C  8.05  9.30 39.55                                                             
C  8.05  9.30 51.72                                                             
C 12.08  6.97  3.04                                                             
C 12.08  6.97 15.21                                                             
C 12.08  6.97 27.38                                                             
C 12.08  6.97 39.55                                                             
C 12.08  6.97 51.72                                                             
C 16.10  4.65  3.04                                                             
C 16.10  4.65 15.21                                                             
C 16.10  4.65 27.38                                                             
C 16.10  4.65 39.55                                                             
C 16.10  4.65 51.72                                                             
C 20.13  2.32  3.04                                                             
C 20.13  2.32 15.21                                                             
C 20.13  2.32 27.38                                                             
C 20.13  2.32 39.55                                                             
C 20.13  2.32 51.72                                                             
C 24.16  0.00  3.04                                                             
C 24.16  0.00 15.21                                                             
C 24.16  0.00 27.38                                                             
C 24.16  0.00 39.55                                                             
C 24.16  0.00 51.72                                                             
C  4.03 16.27  3.04                                                             
C  4.03 16.27 15.21                                                             
C  4.03 16.27 27.38                                                             
C  4.03 16.27 39.55                                                             
C  4.03 16.27 51.72                                                             
C  8.05 13.95  3.04                                                             
C  8.05 13.95 15.21                                                             
C  8.05 13.95 27.38                                                             
C  8.05 13.95 39.55                                                             
C  8.05 13.95 51.72                                                             
C 12.08 11.62  3.04                                                             
C 12.08 11.62 15.21                                                             
C 12.08 11.62 27.38                                                             
C 12.08 11.62 39.55                                                             
C 12.08 11.62 51.72                                                             
C 16.10  9.30  3.04                                                             
C 16.10  9.30 15.21                                                             
C 16.10  9.30 27.38                                                             
C 16.10  9.30 39.55                                                             
C 16.10  9.30 51.72                                                             
C 20.13  6.97  3.04                                                             
C 20.13  6.97 15.21                                                             
C 20.13  6.97 27.38                                                             
C 20.13  6.97 39.55                                                             
C 20.13  6.97 51.72                                                             
C 24.16  4.65  3.04                                                             
C 24.16  4.65 15.21                                                             
C 24.16  4.65 27.38                                                             
C 24.16  4.65 39.55                                                             
C 24.16  4.65 51.72                                                             
C 28.18  2.32  3.04                                                             
C 28.18  2.32 15.21                                                             
C 28.18  2.32 27.38                                                             
C 28.18  2.32 39.55                                                             
C 28.18  2.32 51.72                                                             
C 12.08 16.27  3.04                                                             
C 12.08 16.27 15.21                                                             
C 12.08 16.27 27.38                                                             
C 12.08 16.27 39.55                                                             
C 12.08 16.27 51.72                                                             
C 16.10 13.95  3.04                                                             
C 16.10 13.95 15.21                                                             
C 16.10 13.95 27.38                                                             
C 16.10 13.95 39.55                                                             
C 16.10 13.95 51.72                                                             
C 20.13 11.62  3.04                                                             
C 20.13 11.62 15.21                                                             
C 20.13 11.62 27.38                                                             
C 20.13 11.62 39.55                                                             
C 20.13 11.62 51.72                                                             
C 24.16  9.30  3.04                                                             
C 24.16  9.30 15.21                                                             
C 24.16  9.30 27.38                                                             
C 24.16  9.30 39.55                                                             
C 24.16  9.30 51.72                                                             
C 28.18  6.97  3.04                                                             
C 28.18  6.97 15.21                                                             
C 28.18  6.97 27.38                                                             
C 28.18  6.97 39.55                                                             
C 28.18  6.97 51.72                                                             
C 20.13 16.27  3.04                                                             
C 20.13 16.27 15.21                                                             
C 20.13 16.27 27.38                                                             
C 20.13 16.27 39.55                                                             
C 20.13 16.27 51.72                                                             
C 24.16 13.95  3.04                                                             
C 24.16 13.95 15.21                                                             
C 24.16 13.95 27.38                                                             
C 24.16 13.95 39.55                                                             
C 24.16 13.95 51.72                                                             
C 28.18 11.62  3.04                                                             
C 28.18 11.62 15.21                                                             
C 28.18 11.62 27.38                                                             
C 28.18 11.62 39.55                                                             
C 28.18 11.62 51.72                                                             
C 28.18 16.27  3.04                                                             
C 28.18 16.27 15.21                                                             
C 28.18 16.27 27.38                                                             
C 28.18 16.27 39.55                                                             
C 28.18 16.27 51.72                                                             
C  0.00  0.00  9.13                                                             
C  0.00  0.00 21.30                                                             
C  0.00  0.00 33.47                                                             
C  0.00  0.00 45.63                                                             
C  0.00  0.00 57.80                                                             
C  0.00  4.65  9.13                                                             
C  0.00  4.65 21.30                                                             
C  0.00  4.65 33.47                                                             
C  0.00  4.65 45.63                                                             
C  0.00  4.65 57.80                                                             
C  4.03  2.32  9.13                                                             
C  4.03  2.32 21.30                                                             
C  4.03  2.32 33.47                                                             
C  4.03  2.32 45.63                                                             
C  4.03  2.32 57.80                                                             
C  8.05  0.00  9.13                                                             
C  8.05  0.00 21.30                                                             
C  8.05  0.00 33.47                                                             
C  8.05  0.00 45.63                                                             
C  8.05  0.00 57.80                                                             
C  0.00  9.30  9.13                                                             
C  0.00  9.30 21.30                                                             
C  0.00  9.30 33.47                                                             
C  0.00  9.30 45.63                                                             
C  0.00  9.30 57.80                                                             
C  4.03  6.97  9.13                                                             
C  4.03  6.97 21.30                                                             
C  4.03  6.97 33.47                                                             
C  4.03  6.97 45.63                                                             
C  4.03  6.97 57.80                                                             
C  8.05  4.65  9.13                                                             
C  8.05  4.65 21.30                                                             
C  8.05  4.65 33.47                                                             
C  8.05  4.65 45.63                                                             
C  8.05  4.65 57.80                                                             
C 12.08  2.32  9.13                                                             
C 12.08  2.32 21.30                                                             
C 12.08  2.32 33.47                                                             
C 12.08  2.32 45.63                                                             
C 12.08  2.32 57.80                                                             
C 16.10  0.00  9.13                                                             
C 16.10  0.00 21.30                                                             
C 16.10  0.00 33.47                                                             
C 16.10  0.00 45.63                                                             
C 16.10  0.00 57.80                                                             
C  0.00 13.95  9.13                                                             
C  0.00 13.95 21.30                                                             
C  0.00 13.95 33.47                                                             
C  0.00 13.95 45.63                                                             
C  0.00 13.95 57.80                                                             
C  4.03 11.62  9.13                                                             
C  4.03 11.62 21.30                                                             
C  4.03 11.62 33.47                                                             
C  4.03 11.62 45.63                                                             
C  4.03 11.62 57.80                                                             
C  8.05  9.30  9.13                                                             
C  8.05  9.30 21.30                                                             
C  8.05  9.30 33.47                                                             
C  8.05  9.30 45.63                                                             
C  8.05  9.30 57.80                                                             
C 12.08  6.97  9.13                                                             
C 12.08  6.97 21.30                                                             
C 12.08  6.97 33.47                                                             
C 12.08  6.97 45.63                                                             
C 12.08  6.97 57.80                                                             
C 16.10  4.65  9.13                                                             
C 16.10  4.65 21.30                                                             
C 16.10  4.65 33.47                                                             
C 16.10  4.65 45.63                                                             
C 16.10  4.65 57.80                                                             
C 20.13  2.32  9.13                                                             
C 20.13  2.32 21.30                                                             
C 20.13  2.32 33.47                                                             
C 20.13  2.32 45.63                                                             
C 20.13  2.32 57.80                                                             
C 24.16  0.00  9.13                                                             
C 24.16  0.00 21.30                                                             
C 24.16  0.00 33.47                                                             
C 24.16  0.00 45.63                                                             
C 24.16  0.00 57.80                                                             
C  4.03 16.27  9.13                                                             
C  4.03 16.27 21.30                                                             
C  4.03 16.27 33.47                                                             
C  4.03 16.27 45.63                                                             
C  4.03 16.27 57.80                                                             
C  8.05 13.95  9.13                                                             
C  8.05 13.95 21.30                                                             
C  8.05 13.95 33.47                                                             
C  8.05 13.95 45.63                                                             
C  8.05 13.95 57.80                                                             
C 12.08 11.62  9.13                                                             
C 12.08 11.62 21.30                                                             
C 12.08 11.62 33.47                                                             
C 12.08 11.62 45.63                                                             
C 12.08 11.62 57.80                                                             
C 16.10  9.30  9.13                                                             
C 16.10  9.30 21.30                                                             
C 16.10  9.30 33.47                                                             
C 16.10  9.30 45.63                                                             
C 16.10  9.30 57.80                                                             
C 20.13  6.97  9.13                                                             
C 20.13  6.97 21.30                                                             
C 20.13  6.97 33.47                                                             
C 20.13  6.97 45.63                                                             
C 20.13  6.97 57.80                                                             
C 24.16  4.65  9.13                                                             
C 24.16  4.65 21.30                                                             
C 24.16  4.65 33.47                                                             
C 24.16  4.65 45.63                                                             
C 24.16  4.65 57.80                                                             
C 28.18  2.32  9.13                                                             
C 28.18  2.32 21.30                                                             
C 28.18  2.32 33.47                                                             
C 28.18  2.32 45.63                                                             
C 28.18  2.32 57.80                                                             
C 12.08 16.27  9.13                                                             
C 12.08 16.27 21.30                                                             
C 12.08 16.27 33.47                                                             
C 12.08 16.27 45.63                                                             
C 12.08 16.27 57.80                                                             
C 16.10 13.95  9.13                                                             
C 16.10 13.95 21.30                                                             
C 16.10 13.95 33.47                                                             
C 16.10 13.95 45.63                                                             
C 16.10 13.95 57.80                                                             
C 20.13 11.62  9.13                                                             
C 20.13 11.62 21.30                                                             
C 20.13 11.62 33.47                                                             
C 20.13 11.62 45.63                                                             
C 20.13 11.62 57.80                                                             
C 24.16  9.30  9.13                                                             
C 24.16  9.30 21.30                                                             
C 24.16  9.30 33.47                                                             
C 24.16  9.30 45.63                                                             
C 24.16  9.30 57.80                                                             
C 28.18  6.97  9.13                                                             
C 28.18  6.97 21.30                                                             
C 28.18  6.97 33.47                                                             
C 28.18  6.97 45.63                                                             
C 28.18  6.97 57.80                                                             
C 20.13 16.27  9.13                                                             
C 20.13 16.27 21.30                                                             
C 20.13 16.27 33.47                                                             
C 20.13 16.27 45.63                                                             
C 20.13 16.27 57.80                                                             
C 24.16 13.95  9.13                                                             
C 24.16 13.95 21.30                                                             
C 24.16 13.95 33.47                                                             
C 24.16 13.95 45.63                                                             
C 24.16 13.95 57.80                                                             
C 28.18 11.62  9.13                                                             
C 28.18 11.62 21.30                                                             
C 28.18 11.62 33.47                                                             
C 28.18 11.62 45.63                                                             
C 28.18 11.62 57.80                                                             
C 28.18 16.27  9.13                                                             
C 28.18 16.27 21.30                                                             
C 28.18 16.27 33.47                                                             
C 28.18 16.27 45.63                                                             
C 28.18 16.27 57.80                                                             
C  1.34  2.32  3.04                                                             
C  1.34  2.32 15.21                                                             
C  1.34  2.32 27.38                                                             
C  1.34  2.32 39.55                                                             
C  1.34  2.32 51.72                                                             
C  5.37  0.00  3.04                                                             
C  5.37  0.00 15.21                                                             
C  5.37  0.00 27.38                                                             
C  5.37  0.00 39.55                                                             
C  5.37  0.00 51.72                                                             
C  1.34  6.97  3.04                                                             
C  1.34  6.97 15.21                                                             
C  1.34  6.97 27.38                                                             
C  1.34  6.97 39.55                                                             
C  1.34  6.97 51.72                                                             
C  5.37  4.65  3.04                                                             
C  5.37  4.65 15.21                                                             
C  5.37  4.65 27.38                                                             
C  5.37  4.65 39.55                                                             
C  5.37  4.65 51.72                                                             
C  9.39  2.32  3.04                                                             
C  9.39  2.32 15.21                                                             
C  9.39  2.32 27.38                                                             
C  9.39  2.32 39.55                                                             
C  9.39  2.32 51.72                                                             
C 13.42  0.00  3.04                                                             
C 13.42  0.00 15.21                                                             
C 13.42  0.00 27.38                                                             
C 13.42  0.00 39.55                                                             
C 13.42  0.00 51.72                                                             
C  1.34 11.62  3.04                                                             
C  1.34 11.62 15.21                                                             
C  1.34 11.62 27.38                                                             
C  1.34 11.62 39.55                                                             
C  1.34 11.62 51.72                                                             
C  5.37  9.30  3.04                                                             
C  5.37  9.30 15.21                                                             
C  5.37  9.30 27.38                                                             
C  5.37  9.30 39.55                                                             
C  5.37  9.30 51.72                                                             
C  9.39  6.97  3.04                                                             
C  9.39  6.97 15.21                                                             
C  9.39  6.97 27.38                                                             
C  9.39  6.97 39.55                                                             
C  9.39  6.97 51.72                                                             
C 13.42  4.65  3.04                                                             
C 13.42  4.65 15.21                                                             
C 13.42  4.65 27.38                                                             
C 13.42  4.65 39.55                                                             
C 13.42  4.65 51.72                                                             
C 17.45  2.32  3.04                                                             
C 17.45  2.32 15.21                                                             
C 17.45  2.32 27.38                                                             
C 17.45  2.32 39.55                                                             
C 17.45  2.32 51.72                                                             
C 21.47  0.00  3.04                                                             
C 21.47  0.00 15.21                                                             
C 21.47  0.00 27.38                                                             
C 21.47  0.00 39.55                                                             
C 21.47  0.00 51.72                                                             
C  1.34 16.27  3.04                                                             
C  1.34 16.27 15.21                                                             
C  1.34 16.27 27.38                                                             
C  1.34 16.27 39.55                                                             
C  1.34 16.27 51.72                                                             
C  5.37 13.95  3.04                                                             
C  5.37 13.95 15.21                                                             
C  5.37 13.95 27.38                                                             
C  5.37 13.95 39.55                                                             
C  5.37 13.95 51.72                                                             
C  9.39 11.62  3.04                                                             
C  9.39 11.62 15.21                                                             
C  9.39 11.62 27.38                                                             
C  9.39 11.62 39.55                                                             
C  9.39 11.62 51.72                                                             
C 13.42  9.30  3.04                                                             
C 13.42  9.30 15.21                                                             
C 13.42  9.30 27.38                                                             
C 13.42  9.30 39.55                                                             
C 13.42  9.30 51.72                                                             
C 17.45  6.97  3.04                                                             
C 17.45  6.97 15.21                                                             
C 17.45  6.97 27.38                                                             
C 17.45  6.97 39.55                                                             
C 17.45  6.97 51.72                                                             
C 21.47  4.65  3.04                                                             
C 21.47  4.65 15.21                                                             
C 21.47  4.65 27.38                                                             
C 21.47  4.65 39.55                                                             
C 21.47  4.65 51.72                                                             
C 25.50  2.32  3.04                                                             
C 25.50  2.32 15.21                                                             
C 25.50  2.32 27.38                                                             
C 25.50  2.32 39.55                                                             
C 25.50  2.32 51.72                                                             
C 29.52  0.00  3.04                                                             
C 29.52  0.00 15.21                                                             
C 29.52  0.00 27.38                                                             
C 29.52  0.00 39.55                                                             
C 29.52  0.00 51.72                                                             
C  9.39 16.27  3.04                                                             
C  9.39 16.27 15.21                                                             
C  9.39 16.27 27.38                                                             
C  9.39 16.27 39.55                                                             
C  9.39 16.27 51.72                                                             
C 13.42 13.95  3.04                                                             
C 13.42 13.95 15.21                                                             
C 13.42 13.95 27.38                                                             
C 13.42 13.95 39.55                                                             
C 13.42 13.95 51.72                                                             
C 17.45 11.62  3.04                                                             
C 17.45 11.62 15.21                                                             
C 17.45 11.62 27.38                                                             
C 17.45 11.62 39.55                                                             
C 17.45 11.62 51.72                                                             
C 21.47  9.30  3.04                                                             
C 21.47  9.30 15.21                                                             
C 21.47  9.30 27.38                                                             
C 21.47  9.30 39.55                                                             
C 21.47  9.30 51.72                                                             
C 25.50  6.97  3.04                                                             
C 25.50  6.97 15.21                                                             
C 25.50  6.97 27.38                                                             
C 25.50  6.97 39.55                                                             
C 25.50  6.97 51.72                                                             
C 29.52  4.65  3.04                                                             
C 29.52  4.65 15.21                                                             
C 29.52  4.65 27.38                                                             
C 29.52  4.65 39.55                                                             
C 29.52  4.65 51.72                                                             
C 17.45 16.27  3.04                                                             
C 17.45 16.27 15.21                                                             
C 17.45 16.27 27.38                                                             
C 17.45 16.27 39.55                                                             
C 17.45 16.27 51.72                                                             
C 21.47 13.95  3.04                                                             
C 21.47 13.95 15.21                                                             
C 21.47 13.95 27.38                                                             
C 21.47 13.95 39.55                                                             
C 21.47 13.95 51.72                                                             
C 25.50 11.62  3.04                                                             
C 25.50 11.62 15.21                                                             
C 25.50 11.62 27.38                                                             
C 25.50 11.62 39.55                                                             
C 25.50 11.62 51.72                                                             
C 29.52  9.30  3.04                                                             
C 29.52  9.30 15.21                                                             
C 29.52  9.30 27.38                                                             
C 29.52  9.30 39.55                                                             
C 29.52  9.30 51.72                                                             
C 25.50 16.27  3.04                                                             
C 25.50 16.27 15.21                                                             
C 25.50 16.27 27.38                                                             
C 25.50 16.27 39.55                                                             
C 25.50 16.27 51.72                                                             
C 29.52 13.95  3.04                                                             
C 29.52 13.95 15.21                                                             
C 29.52 13.95 27.38                                                             
C 29.52 13.95 39.55                                                             
C 29.52 13.95 51.72                                                             
C  2.68  0.00  9.13                                                             
C  2.68  0.00 21.30                                                             
C  2.68  0.00 33.47                                                             
C  2.68  0.00 45.63                                                             
C  2.68  0.00 57.80                                                             
C  2.68  4.65  9.13                                                             
C  2.68  4.65 21.30                                                             
C  2.68  4.65 33.47                                                             
C  2.68  4.65 45.63                                                             
C  2.68  4.65 57.80                                                             
C  6.71  2.32  9.13                                                             
C  6.71  2.32 21.30                                                             
C  6.71  2.32 33.47                                                             
C  6.71  2.32 45.63                                                             
C  6.71  2.32 57.80                                                             
C 10.74  0.00  9.13                                                             
C 10.74  0.00 21.30                                                             
C 10.74  0.00 33.47                                                             
C 10.74  0.00 45.63                                                             
C 10.74  0.00 57.80                                                             
C  2.68  9.30  9.13                                                             
C  2.68  9.30 21.30                                                             
C  2.68  9.30 33.47                                                             
C  2.68  9.30 45.63                                                             
C  2.68  9.30 57.80                                                             
C  6.71  6.97  9.13                                                             
C  6.71  6.97 21.30                                                             
C  6.71  6.97 33.47                                                             
C  6.71  6.97 45.63                                                             
C  6.71  6.97 57.80                                                             
C 10.74  4.65  9.13                                                             
C 10.74  4.65 21.30                                                             
C 10.74  4.65 33.47                                                             
C 10.74  4.65 45.63                                                             
C 10.74  4.65 57.80                                                             
C 14.76  2.32  9.13                                                             
C 14.76  2.32 21.30                                                             
C 14.76  2.32 33.47                                                             
C 14.76  2.32 45.63                                                             
C 14.76  2.32 57.80                                                             
C 18.79  0.00  9.13                                                             
C 18.79  0.00 21.30                                                             
C 18.79  0.00 33.47                                                             
C 18.79  0.00 45.63                                                             
C 18.79  0.00 57.80                                                             
C  2.68 13.95  9.13                                                             
C  2.68 13.95 21.30                                                             
C  2.68 13.95 33.47                                                             
C  2.68 13.95 45.63                                                             
C  2.68 13.95 57.80                                                             
C  6.71 11.62  9.13                                                             
C  6.71 11.62 21.30                                                             
C  6.71 11.62 33.47                                                             
C  6.71 11.62 45.63                                                             
C  6.71 11.62 57.80                                                             
C 10.74  9.30  9.13                                                             
C 10.74  9.30 21.30                                                             
C 10.74  9.30 33.47                                                             
C 10.74  9.30 45.63                                                             
C 10.74  9.30 57.80                                                             
C 14.76  6.97  9.13                                                             
C 14.76  6.97 21.30                                                             
C 14.76  6.97 33.47                                                             
C 14.76  6.97 45.63                                                             
C 14.76  6.97 57.80                                                             
C 18.79  4.65  9.13                                                             
C 18.79  4.65 21.30                                                             
C 18.79  4.65 33.47                                                             
C 18.79  4.65 45.63                                                             
C 18.79  4.65 57.80                                                             
C 22.81  2.32  9.13                                                             
C 22.81  2.32 21.30                                                             
C 22.81  2.32 33.47                                                             
C 22.81  2.32 45.63                                                             
C 22.81  2.32 57.80                                                             
C 26.84  0.00  9.13                                                             
C 26.84  0.00 21.30                                                             
C 26.84  0.00 33.47                                                             
C 26.84  0.00 45.63                                                             
C 26.84  0.00 57.80                                                             
C  6.71 16.27  9.13                                                             
C  6.71 16.27 21.30                                                             
C  6.71 16.27 33.47                                                             
C  6.71 16.27 45.63                                                             
C  6.71 16.27 57.80                                                             
C 10.74 13.95  9.13                                                             
C 10.74 13.95 21.30                                                             
C 10.74 13.95 33.47                                                             
C 10.74 13.95 45.63                                                             
C 10.74 13.95 57.80                                                             
C 14.76 11.62  9.13                                                             
C 14.76 11.62 21.30                                                             
C 14.76 11.62 33.47                                                             
C 14.76 11.62 45.63                                                             
C 14.76 11.62 57.80                                                             
C 18.79  9.30  9.13                                                             
C 18.79  9.30 21.30                                                             
C 18.79  9.30 33.47                                                             
C 18.79  9.30 45.63                                                             
C 18.79  9.30 57.80                                                             
C 22.81  6.97  9.13                                                             
C 22.81  6.97 21.30                                                             
C 22.81  6.97 33.47                                                             
C 22.81  6.97 45.63                                                             
C 22.81  6.97 57.80                                                             
C 26.84  4.65  9.13                                                             
C 26.84  4.65 21.30                                                             
C 26.84  4.65 33.47                                                             
C 26.84  4.65 45.63                                                             
C 26.84  4.65 57.80                                                             
C 30.86  2.32  9.13                                                             
C 30.86  2.32 21.30                                                             
C 30.86  2.32 33.47                                                             
C 30.86  2.32 45.63                                                             
C 30.86  2.32 57.80                                                             
C 14.76 16.27  9.13                                                             
C 14.76 16.27 21.30                                                             
C 14.76 16.27 33.47                                                             
C 14.76 16.27 45.63                                                             
C 14.76 16.27 57.80                                                             
C 18.79 13.95  9.13                                                             
C 18.79 13.95 21.30                                                             
C 18.79 13.95 33.47                                                             
C 18.79 13.95 45.63                                                             
C 18.79 13.95 57.80                                                             
C 22.81 11.62  9.13                                                             
C 22.81 11.62 21.30                                                             
C 22.81 11.62 33.47                                                             
C 22.81 11.62 45.63                                                             
C 22.81 11.62 57.80                                                             
C 26.84  9.30  9.13                                                             
C 26.84  9.30 21.30                                                             
C 26.84  9.30 33.47                                                             
C 26.84  9.30 45.63                                                             
C 26.84  9.30 57.80                                                             
C 30.86  6.97  9.13                                                             
C 30.86  6.97 21.30                                                             
C 30.86  6.97 33.47                                                             
C 30.86  6.97 45.63                                                             
C 30.86  6.97 57.80                                                             
C 22.81 16.27  9.13                                                             
C 22.81 16.27 21.30                                                             
C 22.81 16.27 33.47                                                             
C 22.81 16.27 45.63                                                             
C 22.81 16.27 57.80                                                             
C 26.84 13.95  9.13                                                             
C 26.84 13.95 21.30                                                             
C 26.84 13.95 33.47                                                             
C 26.84 13.95 45.63                                                             
C 26.84 13.95 57.80                                                             
C 30.86 11.62  9.13                                                             
C 30.86 11.62 21.30                                                             
C 30.86 11.62 33.47                                                             
C 30.86 11.62 45.63                                                             
C 30.86 11.62 57.80                                                             
C 30.86 16.27  9.13                                                             
C 30.86 16.27 21.30                                                             
C 30.86 16.27 33.47                                                             
C 30.86 16.27 45.63                                                             
C 30.86 16.27 57.80                                                             
%ENDBLOCK POSITIONS_ABS                                                         

--------------------------------------------------------------------------------
-------------------------------- END INPUT FILE --------------------------------
--------------------------------------------------------------------------------


 
<<<<<<<<<<<<<<<<<<<<<<<<<<<<<<<<< Full system >>>>>>>>>>>>>>>>>>>>>>>>>>>>>>>>>>
<<<<<<<<<<<<<<<<<<<<<<<<<<< PAW Dataset information >>>>>>>>>>>>>>>>>>>>>>>>>>>
File: ~/pp/paw/c_pbe_abinit.paw; rc = 1.25 bohr; shape type =  3; rshape = 1.25 bohr;
  Atomic number:  6;  ionic charge:  4.000000
    Partial Wave 1: l = 0
    Partial Wave 2: l = 0
    Partial Wave 3: l = 1
    Partial Wave 4: l = 1
  Core charge supplied for Nonlinear Core Corrections
<<<<<<<<<<<<<<<<<<<<<<<<<<<<<<<<<<<<<<< >>>>>>>>>>>>>>>>>>>>>>>>>>>>>>>>>>>>>>>

-------------------------- Atom counting information ---------------------------
Symbol    Natoms    Nngwfs    Nprojs
  C        640      2560      5120
.......   ......    ......    ......
Totals:    640      2560      5120
--------------------------------------------------------------------------------

=============================== PSINC grid sizes ===============================
                      Simulation cell:   63 x  35 x 120
                              FFT-box:   63 x  35 x 117
                                  PPD:    7 x   5 x   1
Grid space d1=  0.511269841270a0 (KE cutoff=  29.06054Eh = 790.77748eV)
Grid space d2=  0.531142857143a0 (KE cutoff=  26.92659Eh = 732.70972eV)
Grid space d3=  0.507083333333a0 (KE cutoff=  29.54237Eh = 803.88878eV)
================================================================================
  
WARNING in cell_grid_distribute:
Average of less than one 23-slab per node, so workload cannot be
equally balanced between nodes.

********************* Fourier parallelisation information **********************
       Coarse grid (whole simulation cell) dimensions:     63    35   120
          Real-space ('12') slabs/node (min max mean):      3     3     3
         Recip-space ('23') slabs/node (min max mean):      0     1     0
********************************************************************************

********************* Fourier parallelisation information **********************
       Double grid (whole simulation cell) dimensions:    126    70   240
          Real-space ('12') slabs/node (min max mean):      6     6     6
         Recip-space ('23') slabs/node (min max mean):      1     2     1
********************************************************************************

Atom SCF Calculation for C  : Z (AE atom) =   6 : Z (PS atom) =   4
Config String: 2s2 2p2
Orbitals (num,occ):  2     2.00 2.00
Orbitals   (num,l):  2        0    1
Real-space Grid (nr,dr,rmax): 1293    0.0069659443    9.0000000000
Spherical Bessel Basis (nsws,lmax,cutoff):   37    2  161.4736382572
Confining potential (l,width,scale):  0    3.0000000000  100.0000000000
Confining potential (l,width,scale):  1    3.0000000000  100.0000000000
  1         -5.4966243538   -1.3415066196    4.5135257941   -1.6613421942
  2         -5.4660395227   -1.4172174419    4.4326892861   -1.6365362708
  3         -5.4759582348   -1.4337557188    4.4144498970   -1.6324663609
  4         -5.4843804720   -1.4365219414    4.4114201180   -1.6322033818
  5         -5.4882713954   -1.4381734139    4.4096331461   -1.6320227940
  6         -5.4902132675   -1.4390636620    4.4086785626   -1.6319270645
  7         -5.4912093711   -1.4395303631    4.4081823351   -1.6318789226
  8         -5.4917264140   -1.4397726342    4.4079268833   -1.6318551036
  9         -5.4919964206   -1.4398979410    4.4077958777   -1.6318434025
 10         -5.4921379132   -1.4399626875    4.4077287721   -1.6318376788
 11         -5.4922122245   -1.4399961532    4.4076943935   -1.6318348878
 12         -5.4922513136   -1.4400134684    4.4076767658   -1.6318335308
 13         -5.4922719001   -1.4400224400    4.4076677156   -1.6318328728
 14         -5.4922827535   -1.4400270959    4.4076630621   -1.6318325547
 15         -5.4922884809   -1.4400295164    4.4076606653   -1.6318324014
 16         -5.4922915059   -1.4400307770    4.4076594286   -1.6318323279
 17         -5.4922931051   -1.4400314347    4.4076587894   -1.6318322927
 18         -5.4922939512   -1.4400317785    4.4076584583   -1.6318322760
 19         -5.4922943993   -1.4400319585    4.4076582865   -1.6318322681
 20         -5.4922946368   -1.4400320529    4.4076581972   -1.6318322644
 21         -5.4922947627   -1.4400321025    4.4076581507   -1.6318322627
 22         -5.4922948296   -1.4400321287    4.4076581265   -1.6318322619
Atom SCF converged after  22 iterations to a total energy of     -5.49229483

Determining parallel strategy ...
... using space-filling curve
... NGWF load balancing: max     64;  min     64;  average     64
... Projector load balancing: max    128;  min    128;  average    128
... done
Calculating Ewald energy ...
              Ewald: real-space energy =    9523.472672
        Ewald: reciprocal-space energy =       0.052232
         Ewald: (sum_charge)**2 Energy =   11469.549972
         Ewald: (sum_charge**2) Energy =     906.747541
                          Ewald Energy =   -2852.772608
Basis initialisation ...... NGWF spheres initialised
... Projector spheres initialised
... NGWF tight boxes initialised
... Projector tight boxes initialised
... Tight-boxes gathered
... NGWF basis size (local,global):     692756  27873568
... PAW projector initialisation
... done

============================= Charge Augmentation ==============================
                           Aug box size:   11 x  11 x  11
================================================================================

========================== Sparse matrix information ===========================
                        Overlap matrix filling:  44.38%
                        Density kernel filling: 100.00%
              NGWF-Proj overlap matrix filling:  13.12%
                    Aug Overlap matrix filling:  47.81%
                    Hamiltonian matrix filling:  47.81%
                  NGWF diagonal matrix filling:   0.16%
                             KS matrix filling: 100.00% 
                           KSKS matrix filling: 100.00% 
================================================================================

Sparse matrix initialisation ... done
NGWF initialisation ...... done
============ Calculation of NGWF S^-1 using Hotelling algorithm ================ 
         Iteration  |  Frobenius norm and Maximum abs value    (of I-S*S_n^-1)   
               1       0.49226448E+02     0.97805867E+00
               2       0.48113687E+02     0.95793354E+00
               3       0.46412347E+02     0.92212349E+00
               4       0.44157546E+02     0.86336608E+00
               5       0.41417986E+02     0.77591757E+00
               6       0.38161732E+02     0.69095556E+00
               7       0.34640226E+02     0.64025468E+00
               8       0.31249577E+02     0.59790615E+00
               9       0.27764715E+02     0.55545568E+00
              10       0.23471668E+02     0.49229164E+00
              11       0.17850588E+02     0.39040870E+00
              12       0.11132658E+02     0.25009852E+00
              13       0.48929838E+01     0.10835546E+00
              14       0.11292508E+01     0.23042220E-01
              15       0.72836305E-01     0.12786227E-02
              16       0.39266672E-03     0.51535531E-05
              17       0.17272401E-07     0.13760026E-09
              18       0.83803508E-13     0.46629367E-14
================================================================================
Calculating core density ...
================================= Core Density =================================
               Core den box size:   21 x  21 x  21
================================================================================
 ... done
Up spin density kernel initialisation ...... done

Writing density kernel to file "3.219844_GO_manual_4x64graphite.dkn" ... done

>>> Optimising kernel for current NGWFs:

--------------------------- Ensemble-DFT optimisation --------------------------
Running ScaLAPACK on   40 processor(s).

--------------------------------------------------------------------------------
  Iter                              Commutator    Free_energy(A=E-TS)     DeltaA
#    0                          0.000046018845   -3656.98235634050616  -3.66E+03

Step                       =       0.381966011250
Energy                     =   -3656.982318249201
Entropy (-TS)              =      -0.000038091829
Free energy (A=E-TS)       =   -3656.982356340506
Est. 0K Energy 0.5*(E+A)   =   -3656.982337294854
Residual Non-orthogonality =       0.000000000000
Residual N_electrons       =       0.000000000525

Spin          Integrated_Ne            Fermi_level     Delta_Fermi_level
   1      2559.999999997754         0.233600093644              2.34E-01

                           Spin 1          
     Orb      H-eigenvalues     Occupancies
       1 |    -0.4921785359    1.0000000000 | 
                          ------
    1276 |     0.2005345279    0.9999707991 | 
    1277 |     0.2011454319    0.9999645861 | 
    1278 |     0.2011504182    0.9999645303 | 
    1279 |     0.2016058360    0.9999590447 | 
    1280 |     0.2022105650    0.9999504277 | 
                 - Gap at zero temperature -
    1281 |     0.2674147266    0.0000230501 | 
    1282 |     0.2674201305    0.0000230108 | 
    1283 |     0.2675169770    0.0000223178 | 
    1284 |     0.2676474661    0.0000214169 | 
    1285 |     0.2676528533    0.0000213805 | 
                          ------
    2560 |     1.0677833129    0.0000000000 | 

                       |  Abs_value |  Threshold | Converged
     Delta_Free_energy |   3.66E+03 |   1.00E-06 |        No
     Delta_Energy      |   3.66E+03 |   1.00E-04 |        No
     Delta_Entropy     |   3.81E-05 |   1.00E-04 |       Yes
     Commutator        |   4.60E-05 |   1.00E-05 |        No
     Delta_Fermi_level |   2.34E-01 |   1.00E-03 |        No

  Line search of the free energy minimum:
  Step_type        Step             Free_energy   Predicted_free_energy
.   Initial    0.000000    -3656.98235634050616
.    Trial1    0.381966    -3656.98446842508201
.    Trial2    0.618034    -3656.98430776299847
. Quadratic    0.466134    -3656.98453874003371    -3656.98453960889992

--------------------------------------------------------------------------------
  Iter                              Commutator    Free_energy(A=E-TS)     DeltaA
#    1                          0.000022599088   -3656.98453874003371  -2.18E-03

Step                       =       0.466134214363
Energy                     =   -3656.984501985678
Entropy (-TS)              =      -0.000036753780
Free energy (A=E-TS)       =   -3656.984538740034
Est. 0K Energy 0.5*(E+A)   =   -3656.984520362856
Residual Non-orthogonality =       0.000000000000
Residual N_electrons       =      -0.000000000576

Spin          Integrated_Ne            Fermi_level     Delta_Fermi_level
   1      2560.000000002439         0.236087509290              2.49E-03

                           Spin 1          
     Orb      H-eigenvalues     Occupancies
       1 |    -0.4906862715    1.0000000000 | 
                          ------
    1276 |     0.2029757962    0.9999712215 | 
    1277 |     0.2034562160    0.9999665072 | 
    1278 |     0.2034647755    0.9999664166 | 
    1279 |     0.2040686174    0.9999593620 | 
    1280 |     0.2045467374    0.9999527395 | 
                 - Gap at zero temperature -
    1281 |     0.2699978042    0.0000223642 | 
    1282 |     0.2700165489    0.0000222323 | 
    1283 |     0.2701331308    0.0000214287 | 
    1284 |     0.2702946315    0.0000203633 | 
    1285 |     0.2703372186    0.0000200913 | 
                          ------
    2560 |     1.0719098819    0.0000000000 | 

                       |  Abs_value |  Threshold | Converged
     Delta_Free_energy |   2.18E-03 |   1.00E-06 |        No
     Delta_Energy      |   2.18E-03 |   1.00E-04 |        No
     Delta_Entropy     |   1.34E-06 |   1.00E-04 |       Yes
     Commutator        |   2.26E-05 |   1.00E-05 |        No
     Delta_Fermi_level |   2.49E-03 |   1.00E-03 |        No

  Line search of the free energy minimum:
  Step_type        Step             Free_energy   Predicted_free_energy
.   Initial    0.000000    -3656.98453874003371
.    Trial1    0.466134    -3656.98483307417109
.    Trial2    0.670053    -3656.98428319487175
. Quadratic    0.296633    -3656.98497672961275    -3656.98497577249509

--------------------------------------------------------------------------------
  Iter                              Commutator    Free_energy(A=E-TS)     DeltaA
#    2                          0.000014922686   -3656.98497672961275  -4.38E-04

Step                       =       0.296633189224
Energy                     =   -3656.984940536537
Entropy (-TS)              =      -0.000036193234
Free energy (A=E-TS)       =   -3656.984976729613
Est. 0K Energy 0.5*(E+A)   =   -3656.984958633075
Residual Non-orthogonality =       0.000000000000
Residual N_electrons       =       0.000000000158

Spin          Integrated_Ne            Fermi_level     Delta_Fermi_level
   1      2559.999999999332         0.236889252122              8.02E-04

                           Spin 1          
     Orb      H-eigenvalues     Occupancies
       1 |    -0.4901920119    1.0000000000 | 
                          ------
    1276 |     0.2037078262    0.9999718481 | 
    1277 |     0.2042222352    0.9999668829 | 
    1278 |     0.2042317489    0.9999667833 | 
    1279 |     0.2047952987    0.9999603139 | 
    1280 |     0.2053081473    0.9999533376 | 
                 - Gap at zero temperature -
    1281 |     0.2708561819    0.0000219679 | 
    1282 |     0.2708758119    0.0000218321 | 
    1283 |     0.2709902934    0.0000210570 | 
    1284 |     0.2711629791    0.0000199395 | 
    1285 |     0.2711766320    0.0000198537 | 
                          ------
    2560 |     1.0732915260    0.0000000000 | 

                       |  Abs_value |  Threshold | Converged
     Delta_Free_energy |   4.38E-04 |   1.00E-06 |        No
     Delta_Energy      |   4.39E-04 |   1.00E-04 |        No
     Delta_Entropy     |   5.61E-07 |   1.00E-04 |       Yes
     Commutator        |   1.49E-05 |   1.00E-05 |        No
     Delta_Fermi_level |   8.02E-04 |   1.00E-03 |       Yes

  Line search of the free energy minimum:
  Step_type        Step             Free_energy   Predicted_free_energy
.   Initial    0.000000    -3656.98497672961275
.    Trial1    0.296633    -3656.98515010159963
.    Trial2    0.565295    -3656.98496559686419
. Quadratic    0.278269    -3656.98515088260501    -3656.98515085998815

--------------------------------------------------------------------------------
  Iter                              Commutator    Free_energy(A=E-TS)     DeltaA
#    3                          0.000010490654   -3656.98515088260501  -1.74E-04

Step                       =       0.278268934896
Energy                     =   -3656.985115042118
Entropy (-TS)              =      -0.000035840869
Free energy (A=E-TS)       =   -3656.985150882605
Est. 0K Energy 0.5*(E+A)   =   -3656.985132962362
Residual Non-orthogonality =       0.000000000000
Residual N_electrons       =       0.000000000381

Spin          Integrated_Ne            Fermi_level     Delta_Fermi_level
   1      2559.999999998396         0.237422350947              5.33E-04

                           Spin 1          
     Orb      H-eigenvalues     Occupancies
       1 |    -0.4898602312    1.0000000000 | 
                          ------
    1276 |     0.2042054712    0.9999721615 | 
    1277 |     0.2047251913    0.9999671966 | 
    1278 |     0.2047349345    0.9999670956 | 
    1279 |     0.2052919937    0.9999607675 | 
    1280 |     0.2058103401    0.9999537907 | 
                 - Gap at zero temperature -
    1281 |     0.2714218557    0.0000217430 | 
    1282 |     0.2714416625    0.0000216075 | 
    1283 |     0.2715564655    0.0000208382 | 
    1284 |     0.2717294655    0.0000197304 | 
    1285 |     0.2717386357    0.0000196733 | 
                          ------
    2560 |     1.0742145140    0.0000000000 | 

                       |  Abs_value |  Threshold | Converged
     Delta_Free_energy |   1.74E-04 |   1.00E-06 |        No
     Delta_Energy      |   1.75E-04 |   1.00E-04 |        No
     Delta_Entropy     |   3.52E-07 |   1.00E-04 |       Yes
     Commutator        |   1.05E-05 |   1.00E-05 |        No
     Delta_Fermi_level |   5.33E-04 |   1.00E-03 |       Yes

  Line search of the free energy minimum:
  Step_type        Step             Free_energy   Predicted_free_energy
.   Initial    0.000000    -3656.98515088260501
.    Trial1    0.278269    -3656.98523491528249
.    Trial2    0.553946    -3656.98515232484488
. Quadratic    0.278172    -3656.98523491533115    -3656.98523491529295

--------------------------------------------------------------------------------
  Iter                              Commutator    Free_energy(A=E-TS)     DeltaA
#    4                          0.000007650921   -3656.98523491533115  -8.40E-05

Step                       =       0.278171554844
Energy                     =   -3656.985199322379
[...]
 C   160 -- C   385       -0.10      5.37000
 C   159 -- C   384       -0.10      5.37000
 C   158 -- C   383       -0.10      5.37000
 C   157 -- C   382       -0.10      5.37000
 C   156 -- C   381       -0.10      5.37000
 C   155 -- C   355       -0.10      5.37000
 C   154 -- C   354       -0.10      5.37000
 C   153 -- C   353       -0.10      5.37000
 C   152 -- C   352       -0.10      5.37000
 C   151 -- C   351       -0.10      5.37000
 C   140 -- C   335       -0.10      5.37000
 C   139 -- C   334       -0.10      5.37000
 C   138 -- C   333       -0.10      5.37000
 C   137 -- C   332       -0.10      5.37000
 C   136 -- C   331       -0.10      5.37000
 C   115 -- C   325       -0.10      5.37000
 C   114 -- C   324       -0.10      5.37000
 C   113 -- C   323       -0.10      5.37000
 C   112 -- C   322       -0.10      5.37000
 C   111 -- C   321       -0.10      5.37000
 C   219 -- C   569       -0.10      5.37202
 C   218 -- C   568       -0.10      5.37202
 C   217 -- C   567       -0.10      5.37202
 C   216 -- C   566       -0.10      5.37202
 C   250 -- C   540       -0.10      5.37202
 C   249 -- C   539       -0.10      5.37202
 C   248 -- C   538       -0.10      5.37202
 C   247 -- C   537       -0.10      5.37202
 C   246 -- C   536       -0.10      5.37202
 C   220 -- C   570       -0.10      5.37202
 C   285 -- C   580       -0.10      5.37202
 C   284 -- C   579       -0.10      5.37202
 C   283 -- C   578       -0.10      5.37202
 C   282 -- C   577       -0.10      5.37202
 C   281 -- C   576       -0.10      5.37202
 C   260 -- C   605       -0.10      5.37202
 C   259 -- C   604       -0.10      5.37202
 C   258 -- C   603       -0.10      5.37202
 C   257 -- C   602       -0.10      5.37202
 C   256 -- C   601       -0.10      5.37202
 C   220 -- C   515       -0.10      5.37202
 C   219 -- C   514       -0.10      5.37202
 C   218 -- C   513       -0.10      5.37202
 C   217 -- C   512       -0.10      5.37202
 C   216 -- C   511       -0.10      5.37202
 C   195 -- C   540       -0.10      5.37202
 C   195 -- C   500       -0.10      5.37202
 C   194 -- C   539       -0.10      5.37202
 C   194 -- C   499       -0.10      5.37202
 C   193 -- C   538       -0.10      5.37202
 C   193 -- C   498       -0.10      5.37202
 C   192 -- C   537       -0.10      5.37202
 C   192 -- C   497       -0.10      5.37202
 C   191 -- C   536       -0.10      5.37202
 C   191 -- C   496       -0.10      5.37202
 C   180 -- C   515       -0.10      5.37202
 C   179 -- C   514       -0.10      5.37202
 C   178 -- C   513       -0.10      5.37202
 C   177 -- C   512       -0.10      5.37202
 C   176 -- C   511       -0.10      5.37202
 C    11 -- C   331       -0.10      5.37202
 C   205 -- C   550       -0.10      5.37202
 C   204 -- C   549       -0.10      5.37202
 C   203 -- C   548       -0.10      5.37202
 C   202 -- C   547       -0.10      5.37202
 C   201 -- C   546       -0.10      5.37202
 C    95 -- C   425       -0.10      5.37202
 C    95 -- C   365       -0.10      5.37202
 C    94 -- C   424       -0.10      5.37202
 C    94 -- C   364       -0.10      5.37202
 C    93 -- C   423       -0.10      5.37202
 C    93 -- C   363       -0.10      5.37202
 C    92 -- C   422       -0.10      5.37202
 C    92 -- C   362       -0.10      5.37202
 C    91 -- C   421       -0.10      5.37202
 C    91 -- C   361       -0.10      5.37202
 C    40 -- C   365       -0.10      5.37202
 C    39 -- C   364       -0.10      5.37202
 C    38 -- C   363       -0.10      5.37202
 C    37 -- C   362       -0.10      5.37202
 C    36 -- C   361       -0.10      5.37202
 C    15 -- C   335       -0.10      5.37202
 C    65 -- C   395       -0.10      5.37202
 C    65 -- C   345       -0.10      5.37202
 C    64 -- C   394       -0.10      5.37202
 C    64 -- C   344       -0.10      5.37202
 C    63 -- C   393       -0.10      5.37202
 C    30 -- C   355       -0.10      5.37202
 C    63 -- C   343       -0.10      5.37202
 C    62 -- C   392       -0.10      5.37202
 C    30 -- C   325       -0.10      5.37202
 C    14 -- C   334       -0.10      5.37202
 C    62 -- C   342       -0.10      5.37202
 C    61 -- C   391       -0.10      5.37202
 C    29 -- C   354       -0.10      5.37202
 C    61 -- C   341       -0.10      5.37202
 C    29 -- C   324       -0.10      5.37202
 C   260 -- C   550       -0.10      5.37202
 C   259 -- C   549       -0.10      5.37202
 C    28 -- C   353       -0.10      5.37202
 C   258 -- C   548       -0.10      5.37202
 C   257 -- C   547       -0.10      5.37202
 C   256 -- C   546       -0.10      5.37202
 C    28 -- C   323       -0.10      5.37202
 C    27 -- C   352       -0.10      5.37202
 C    13 -- C   333       -0.10      5.37202
 C    27 -- C   322       -0.10      5.37202
 C   120 -- C   395       -0.10      5.37202
 C    26 -- C   351       -0.10      5.37202
 C   119 -- C   394       -0.10      5.37202
 C   118 -- C   393       -0.10      5.37202
 C    55 -- C   335       -0.10      5.37202
 C   117 -- C   392       -0.10      5.37202
 C    26 -- C   321       -0.10      5.37202
 C   116 -- C   391       -0.10      5.37202
 C    54 -- C   334       -0.10      5.37202
 C    12 -- C   332       -0.10      5.37202
 C    53 -- C   333       -0.10      5.37202
 C   230 -- C   580       -0.10      5.37202
 C   230 -- C   525       -0.10      5.37202
 C   229 -- C   579       -0.10      5.37202
 C   229 -- C   524       -0.10      5.37202
 C   228 -- C   578       -0.10      5.37202
 C    52 -- C   332       -0.10      5.37202
 C   228 -- C   523       -0.10      5.37202
 C   227 -- C   577       -0.10      5.37202
 C   227 -- C   522       -0.10      5.37202
 C   226 -- C   576       -0.10      5.37202
 C   226 -- C   521       -0.10      5.37202
 C    51 -- C   331       -0.10      5.37202
 C    23 -- C   478       -0.10      5.37202
 C    49 -- C   469       -0.10      5.37202
 C    48 -- C   468       -0.10      5.37202
 C    47 -- C   467       -0.10      5.37202
 C    22 -- C   477       -0.10      5.37202
 C    46 -- C   466       -0.10      5.37202
 C    21 -- C   476       -0.10      5.37202
 C    85 -- C   355       -0.10      5.37202
 C    84 -- C   354       -0.10      5.37202
 C    83 -- C   353       -0.10      5.37202
 C    82 -- C   352       -0.10      5.37202
 C    81 -- C   351       -0.10      5.37202
 C    55 -- C   385       -0.10      5.37202
 C    54 -- C   384       -0.10      5.37202
 C    25 -- C   480       -0.10      5.37202
 C    53 -- C   383       -0.10      5.37202
 C    52 -- C   382       -0.10      5.37202
 C    51 -- C   381       -0.10      5.37202
 C    24 -- C   479       -0.10      5.37202
 C    50 -- C   470       -0.10      5.37202
 C    24 -- C   449       -0.10      5.37202
 C     6 -- C   416       -0.10      5.37202
 C    23 -- C   448       -0.10      5.37202
 C    22 -- C   447       -0.10      5.37202
 C    10 -- C   470       -0.10      5.37202
 C     5 -- C   450       -0.10      5.37202
 C    21 -- C   446       -0.10      5.37202
 C    10 -- C   420       -0.10      5.37202
 C     9 -- C   469       -0.10      5.37202
 C     9 -- C   419       -0.10      5.37202
 C     8 -- C   468       -0.10      5.37202
 C     4 -- C   449       -0.10      5.37202
 C   150 -- C   440       -0.10      5.37202
 C   149 -- C   439       -0.10      5.37202
 C   148 -- C   438       -0.10      5.37202
 C   147 -- C   437       -0.10      5.37202
 C     8 -- C   418       -0.10      5.37202
 C   146 -- C   436       -0.10      5.37202
 C     2 -- C   447       -0.10      5.37202
 C   135 -- C   460       -0.10      5.37202
 C     7 -- C   467       -0.10      5.37202
 C   134 -- C   459       -0.10      5.37202
 C   133 -- C   458       -0.10      5.37202
 C   132 -- C   457       -0.10      5.37202
 C   131 -- C   456       -0.10      5.37202
 C     7 -- C   417       -0.10      5.37202
 C     1 -- C   446       -0.10      5.37202
 C     6 -- C   466       -0.10      5.37202
 C    25 -- C   450       -0.10      5.37202
 C     3 -- C   448       -0.10      5.37202
 C   106 -- C   436       -0.10      5.37202
 C   106 -- C   376       -0.10      5.37202
 C    80 -- C   410       -0.10      5.37202
 C    79 -- C   409       -0.10      5.37202
 C    78 -- C   408       -0.10      5.37202
 C    77 -- C   407       -0.10      5.37202
 C    76 -- C   406       -0.10      5.37202
 C   135 -- C   410       -0.10      5.37202
 C   134 -- C   409       -0.10      5.37202
 C   133 -- C   408       -0.10      5.37202
 C   132 -- C   407       -0.10      5.37202
 C   131 -- C   406       -0.10      5.37202
 C   110 -- C   440       -0.10      5.37202
 C   110 -- C   380       -0.10      5.37202
 C   109 -- C   439       -0.10      5.37202
 C   109 -- C   379       -0.10      5.37202
 C   108 -- C   438       -0.10      5.37202
 C   108 -- C   378       -0.10      5.37202
 C   107 -- C   437       -0.10      5.37202
 C   107 -- C   377       -0.10      5.37202
 C   215 -- C   635       -0.10      5.38000
 C   214 -- C   634       -0.10      5.38000
 C   213 -- C   633       -0.10      5.38000
 C   212 -- C   632       -0.10      5.38000
 C   211 -- C   631       -0.10      5.38000
 C   190 -- C   620       -0.10      5.38000
 C   189 -- C   619       -0.10      5.38000
 C   188 -- C   618       -0.10      5.38000
 C   187 -- C   617       -0.10      5.38000
 C   186 -- C   616       -0.10      5.38000
 C   175 -- C   595       -0.10      5.38000
 C   174 -- C   594       -0.10      5.38000
 C   173 -- C   593       -0.10      5.38000
 C   172 -- C   592       -0.10      5.38000
 C   171 -- C   591       -0.10      5.38000
 C   245 -- C   640       -0.10      5.38000
 C   244 -- C   639       -0.10      5.38000
 C   243 -- C   638       -0.10      5.38000
 C   242 -- C   637       -0.10      5.38000
 C   241 -- C   636       -0.10      5.38000
==================================================


=================== Orbital energy and occupancy information ===================

      Total number of orbitals:    2560
        Occupancy sum (kernel):    1280.000000001
   Occupancy sum (eigenvalues):    1280.000000001
                 HOMO-LUMO gap:       0.000019492 Eh
                 Mid-gap level:       0.310849402 Eh

                        Orbital | Energy (Eh) | Occupancy
                            1    -0.448963268   1.0000000
                        .......   ...........   .........
                         1272     0.242883611   0.9999878
                         1273     0.243294924   0.9999861
                         1274     0.243354665   0.9999858
                         1275     0.247283449   0.9999510
                         1276     0.247285233   0.9999510
                         1277     0.247728701   0.9999437
                         1278     0.247730385   0.9999436
                         1279     0.247978552   0.9999390
                         1280     0.248407036   0.9999302
                         1281     0.310839656   0.0000392
                        ....... -- gap at 0K -- .........
                         1282     0.310859148   0.0000389
                         1283     0.311098635   0.0000361
                         1284     0.311117848   0.0000359
                         1285     0.311733242   0.0000297
                         1286     0.311737585   0.0000296
                         1287     0.312009033   0.0000272
                         1288     0.312013339   0.0000272
                         1289     0.312381797   0.0000242
                         1290     0.312663786   0.0000222
                         1291     0.313065535   0.0000193
                        .......   ...........   .........
                         2560     1.171070625   0.0000000

================================================================================

===================== Writing canonical molecular orbitals =====================
| Orbital  Energy (eV)  Norm     |
| HOMO      8.45837743  1.000000 | Writing "3.219844_GO_manual_4x64graphite_HOMO.cube" ... done
Writing "3.219844_GO_manual_4x64graphite_HOMO.dx" ... done
| LUMO      8.45890783  1.000000 | Writing "3.219844_GO_manual_4x64graphite_LUMO.cube" ... done
Writing "3.219844_GO_manual_4x64graphite_LUMO.dx" ... done
================================================================================
 
===================== Density of States (DOS) calculation ======================
Writing "3.219844_GO_manual_4x64graphite_DOS.txt" ...  done
================================================================================
 
Writing bands to file "3.219844_GO_manual_4x64graphite.val_bands" ... done
 
================ Projected Density of States (pDOS) calculation ================
 
Constructing AM resolved functions  ...... done
Writing NGWF plot files in formats: CUBE DX ...  done
 
Performing overlap integrals ...  done
 
Computing pDOS weights ...  done
 
All bands spilling parameter =   3.95 %
Occupancy-weighted spilling parameter =   0.86 %
 
 => Outputting data for OptaDOS <=
 
Writing pDOS weights to file "3.219844_GO_manual_4x64graphite.val_pdos_bin" ... done
 
Writing band gradients to file "3.219844_GO_manual_4x64graphite.val_dome_bin" ... done
 
Writing Castep output cell file to "3.219844_GO_manual_4x64graphite-out.cell" ... done
 
 => Computing Gaussian smeared pDOS <= 
Writing "3.219844_GO_manual_4x64graphite_PDOS.txt" ...  done
 
 => Computing Occupancy-weighted Gaussian smeared pDOS <= 
Writing "3.219844_GO_manual_4x64graphite_occ_PDOS.txt" ...  done
  => Band centres: 
 S band centre of group 1:  -15.600096 eV
 P band centre of group 1:   -8.461301 eV
  Band centres done. <=
  => Integrated number of electrons in each AM band: 
 S num electrons of group 1:  577.536857
 P num electrons of group 1: 1960.457049
  Integrated number of electrons done. <=
================================================================================

------------------------------ TIMING INFORMATION ------------------------------
AVERAGE TIME:    4463.913s on     40 node(s)                                    
TOTAL TIME:      4463.913s on     40 node(s)                                    
================= AVERAGE TIMINGS FROM ALL NODES (CUMULATIVE) ==================
|| TAG                                    #calls    cpu time   %total  Gflops ||
|| work_imbalance                       :     1        0.00s   0.000%  ------ ||
|| paw_tcore_hartree_on_grid            :     1        0.00s   0.000%  ------ ||
|| paw_tcore_density                    :     1        0.01s   0.000%  ------ ||
|| paw_sphere_density_on_grid           :     1        0.01s   0.000%  ------ ||
|| sparse_set_to_garbage                :   183        0.03s   0.001%  ------ ||
|| paw_dij_hartree                      :   380        0.05s   0.001%  ------ ||
|| pseudo_make_structure_factor         :     1        0.05s   0.001%  ------ ||
|| basis_extract_function_from_box      :  2048        0.09s   0.002%  ------ ||
|| paw_species_calc_proj_prec_mat       :     1        0.12s   0.003%  ------ ||
|| paw_dataset_init                     :     1        0.15s   0.003%  ------ ||
|| density_init_guess_real              :     1        0.24s   0.005%  ------ ||
|| ngwfs_initialise_from_radial         :     2        0.67s   0.015%  ------ ||
|| restart_kernel_write                 :    17        0.95s   0.021%  ------ ||
|| dense_normal_eigensolve              :     1        0.97s   0.022%  ------ ||
|| sparse_init                          :     1        0.98s   0.022%  ------ ||
|| hartree_on_grid                      :   285        1.15s   0.026%  ------ ||
|| ewald_calculate_energy               :     1        2.36s   0.053%  ------ ||
|| projectors_init_fftbox_recip         :   161        3.14s   0.070%  ------ ||
|| fourier_apply_box_pair               :  3040        5.03s   0.113% 561.146 ||
|| basis_copy_function_to_box           : 27072        5.80s   0.130%  ------ ||
|| sw_init                              :     1        6.73s   0.151%  ------ ||
|| augmentation_screen_dij              :   292        7.10s   0.159%  ------ ||
|| sparse_embed_hotelling_invert_embed  :    31        9.67s   0.217%  ------ ||
|| ngwf_gradient_coeffs                 :    16       12.71s   0.285%  ------ ||
|| fourier_apply_cell_backward          :  8806       15.36s   0.344%  64.437 ||
|| fourier_apply_cell_forward           :  8237       16.03s   0.359%  57.749 ||
|| cell_grid_extract_box_real           : 11468       17.32s   0.388%  ------ ||
|| sparse_trace                         :  3444       20.44s   0.458%  ------ ||
|| paw_dij_xc                           :   380       25.04s   0.561%  ------ ||
|| cell_grid_deposit_box_real           : 36656       25.29s   0.567%  ------ ||
|| aug_nonlocal_mat                     :   364       38.45s   0.861%  ------ ||
|| density_fftbox_deposit_to_cell       : 18240       49.87s   1.117%  ------ ||
|| eigenstates_pdos                     :     1       54.58s   1.223%  ------ ||
|| augmentation_density_on_grid         :   285       55.11s   1.235%  ------ ||
|| eigenstates_calculate                :     1       58.87s   1.319%  ------ ||
|| function_ops_brappd_ketppd           :    64       65.99s   1.478%  ------ ||
|| nlxc_vdw_energy                      :   568       66.50s   1.490%  ------ ||
|| hamiltonian_energy_components        :     4       69.51s   1.557%  ------ ||
|| xc_energy_potential                  :   284       78.12s   1.750%  ------ ||
|| projectors_func_ovlp_box             :    32       79.85s   1.789%  ------ ||
|| properties_calculate                 :     1      105.15s   2.355%  ------ ||
|| integrals_kinetic                    :    31      117.80s   2.639%  ------ ||
|| dense_eigensolve                     :   249      137.59s   3.082%  ------ ||
|| potential_apply_to_ngwf_batch        :   360      141.48s   3.169%  ------ ||
|| sparse_product                       :  3472      154.00s   3.450%  ------ ||
|| restart_ngwfs_tightbox_output        :    15      160.63s   3.598%  ------ ||
|| basis_dot_function_with_box          : 9.048M     242.33s   5.429%  ------ ||
|| fourier_apply_box                    : 85232      264.13s   5.917% 981.492 ||
|| edft_diag_ngwf_ham                   :   248      290.26s   6.502%  ------ ||
|| projectors_gradient_batch            :    64      296.89s   6.651%  ------ ||
|| density_fftbox_interpolate_multiply  : 18240      352.31s   7.892%  ------ ||
|| integrals_locpot_mat_els_batch       :   360      360.28s   8.071%  ------ ||
|| projectors_grad_precond_batch        :    64      437.67s   9.805%  ------ ||
|| density_batch_interp_deposit         :  1140      447.89s  10.034%  ------ ||
|| integrals_locpot_dbl_grid            :    90      503.59s  11.281%  ------ ||
|| edft_apply_smearing_operator         :   248      556.04s  12.456%  ------ ||
|| basis_add_function_to_box            : 25.37M     650.62s  14.575%  ------ ||
|| ngwf_gradient_build_batch            :    64      783.18s  17.545%  ------ ||
|| density_batch_row_sums               :  1140     1013.07s  22.695%  ------ ||
|| ngwf_gradient_batch                  :    64     1041.91s  23.341%  ------ ||
|| ngwf_gradient_lnv                    :    16     1081.24s  24.222%  ------ ||
|| density_on_dbl_grid                  :   285     1487.89s  33.331%  ------ ||
|| hamiltonian_lhxc_calculate           :   279     1596.42s  35.763%  ------ ||
|| edft_calculate                       :    16     2628.16s  58.876%  ------ ||
|| ngwf_cg_optimise                     :     1     4332.63s  97.059%  ------ ||
|| total_time                           :     1     4463.91s 100.000%  ------ ||
================================================================================
Overhead of generating timer report: 
- 0 ms averaging over threads,
- 5 ms ensuring consistency across MPI ranks,
- 0 ms printing in order.

Job completed: 26-02-2020 00:50 (-0000)

