 +---------------------------------------------------------------+
 |                                                               |
 |        ####### #     # ####### ####### ####### ######         |
 |        #     # ##    # #          #    #       #     #        |
 |        #     # # #   # #          #    #       #     #        |
 |        #     # #  #  # #####      #    #####   ######         |
 |        #     # #   # # #          #    #       #              |
 |        #     # #    ## #          #    #       #              |
 |        ####### #     # #######    #    ####### #              |
 |                                                               |
 |        Linear-Scaling Ab Initio Total Energy Program          |
 |                                                               |
 |          Release for academic collaborators of ODG            |
 |                                             Version 5.3.2.12  |
 |                                                               |
 +---------------------------------------------------------------+
 |                                                               |
 |  Authors:                                                     |
 |  Jacek Dziedzic, Peter D. Haynes, Nicholas D. M. Hine,        |
 |  Arash. A. Mostofi, Mike C. Payne and Chris-Kriton Skylaris   |
 |                                                               |
 |  Contributors:                                                |
 |  J. Aarons, L. Andrinopoulos, P. W. Avraam, R. A. Bell,       |
 |  A. Bhandari, G. A. Bramley, R. J. Charlton, S. J. Clark,     |
 |  R. J. Clements, G. C. Constantinescu, F. Corsetti,           |
 |  N. Corsini, O. Dieguez, S. M. M. Dubois, K. K. B. Duff,      |
 |  J. M. Escartin, A. Greco, H. Helal, Q. O. Hill, L. P. Lee,   |
 |  J.-H. Li, E. B. Linscott, G. Moynihan, D. D. O`Regan,        |
 |  O. K. Okan, M. J. S. Phipps, C. J. Pickard,                  |
 |  J. C. A. Prentice, M. I. J. Probert, L. E. Ratcliff,         |
 |  M. Robinson, A. Ruiz Serrano, J. S. Spencer, E. W. Tait,     |
 |  G. Teobaldi, D. Turban, V. Vitale, K. A. Wilkinson,          |
 |  C. Weber, J. C. Womack, N. Yeung and T. J. Zuehlsdorff       |
 |                                                               |
 |                                   Copyright (c) 2004-2020     |
 |                                                               |
 |  Please cite:                                                 |
 |  "Introducing ONETEP: Linear-scaling density functional       |
 |   simulations on parallel computers".                         |
 |   C.-K. Skylaris, P. D. Haynes, A. A. Mostofi, M. C. Payne.   |
 |   J. Chem. Phys. 122 084119 (2005).                           |
 |                                                               |
 |          in all publications arising from your use of ONETEP. |
 |                                                               |
 +---------------------------------------------------------------+
 |                                                               |
 |   ONETEP is based on developments described in the following  |
 |   publications:                                               |
 |                                                               |
 |  "Nonorthogonal generalized Wannier function pseudopotential  |
 |   plane-wave method".                                         |
 |   C.-K. Skylaris, A. A. Mostofi, P. D. Haynes, O. Dieguez,    |
 |   M. C. Payne.                                                |
 |   Phys. Rev. B 66 035119 (2002).                              |
 |                                                               |
 |  "Preconditioned iterative minimization for linear-scaling    |
 |   electronic structure calculations".                         |
 |   A. A. Mostofi, P. D. Haynes, C.-K. Skylaris, M. C. Payne.   |
 |   J. Chem. Phys. 119(17), pp.8842-8848 (2003).                |
 |                                                               |
 |  "Total-energy calculations on a real space grid with         |
 |   localized functions and a plane-wave basis".                |
 |   A. A. Mostofi, C.-K. Skylaris, P. D. Haynes, M. C. Payne.   |
 |   Comput. Phys. Commun. 147, pp.788-802 (2002).               |
 |                                                               |
 |  "Accurate kinetic energy evaluation in electronic structure  |
 |   calculations with localized functions on real space grids"  |
 |   C.-K. Skylaris, A. A. Mostofi, P. D. Haynes, C. J. Pickard, |
 |   M. C. Payne.                                                |
 |   Comput. Phys. Commun. 140, pp.315-322 (2001).               |
 |                                                               |
 |  "Accurate ionic forces and geometry optimization in linear-  |
 |   scaling density-functional theory with local orbitals"      |
 |   N. D. M. Hine, M. Robinson, P. D. Haynes, C.-K. Skylaris,   |
 |   M. C. Payne, and A. A. Mostofi.                             |
 |   Phys. Rev. B 83 195102 (2011).                              |
 |                                                               |
 +---------------------------------------------------------------+

Job started: 26-02-2020 00:24 (-0000)
 
Reading parameters from file "3.3003376_GO_manual_4x64graphite.dat" ...

WARNING: "cutoff_energy" not specified, but "psinc_spacing" specified.
         Using the latter to set the KE cutoff energy to  732.32021eV,
         thus *overriding* the default.

... done

If your calculation crashes here, before "Checking processes and threads..."
is displayed, then your stack size is insufficient.
If so, use "ulimit -s unlimited" at runtime.
You can disable this check with "check_stack_size F".

Checking processes and threads...
   Determining the default number of threads...
      No default threads set at compilation time: defaulting to 1.
      OpenMP library call suggests 4 threads.
      Hybrid MPI-OpenMP compilation detected.
      Number of MPI processes > 1.
      OMP_NUM_THREADS environment variable present and
      its value matches the one obtained from the OpenMP library call.
      Using this value as default.
      Default threads: 4
      Default applies to threads_max and threads_num_fftboxes.
      Settings in the input file override this default.
   ... done

   Running with 40 MPI processes.
   There are 10 MPI processes running on the same node as the root process.
   Each MPI process is using: 
               1 threads for simulation cell FFTs.
               1 threads for parallel FFT box operations.
               4 threads for loops over batched FFT box operations.
               4 threads in other parallel regions.
... done

Basic input checks...
Resetting ngwf_cg_rotate to TRUE for EDFT calculations
... done

Reading geometry and species blocks from file "3.3003376_GO_manual_4x64graphite.dat" ...
    
  PSINC grid spacing along a1 set to   0.511215680000a0 from input file.
  PSINC grid spacing along a2 set to   0.531284090000a0 from input file.
  PSINC grid spacing along a3 set to   0.507052600000a0 from input file.
  Number of PPD points along a3 set to 1.  This is 
  the default value, it may have been provided also in the input file.
... done
 Writing xyz coordinates to file "3.3003376_GO_manual_4x64graphite.xyz" ... done


--------------------------------------------------------------------------------
---------------------------------- INPUT FILE ----------------------------------
--------------------------------------------------------------------------------

task : singlepoint                                                              
do_properties : true                                                            
dx_format T                                                                     
edft T                                                                          
output_detail VERBOSE                                                           
write_xyz T                                                                     
xc_functional VDWDF                                                             
PSINC_SPACING 0.51121568 0.53128409 0.50705260                                  
paw T                                                                           
pdos_max_l = 2                                                                  
dos_smear  0.1 eV                                                               
popn_calculate T                                                                
PDOS_PSEUDOATOMIC T                                                             
PDOS_REDUCE_SWS F                                                               
PDOS_CONSTRUCT_BASIS F                                                          
PDOS_LOWDIN T                                                                   
PDOS_ORTH_ATOM_BLOCKS F                                                         
PDOS_LCAO_OPTIMIZE F                                                            
pdos_optados_output T                                                           
homo_plot 0                                                                     
lumo_plot 0                                                                     
homo_dens_plot -1                                                               
lumo_dens_plot -1                                                               
%BLOCK SPECIES                                                                  
C C 6 4 9.0                                                                     
%ENDBLOCK SPECIES                                                               
%BLOCK SPECIES_POT                                                              
C "~/pp/paw/c_pbe_abinit.paw"                                                   
%ENDBLOCK SPECIES_POT                                                           
%BLOCK SPECIES_ATOMIC_SET                                                       
C "SOLVE conf=2s2 2p2"                                                          
%ENDBLOCK SPECIES_ATOMIC_SET                                                    
%BLOCK LATTICE_CART                                                             
32.21  0.00  0.00                                                               
0.00 18.59  0.00                                                                
0.00  0.00 62.37                                                                
%ENDBLOCK LATTICE_CART                                                          
%BLOCK POSITIONS_ABS                                                            
C  0.00  0.00  3.12                                                             
C  0.00  0.00 15.59                                                             
C  0.00  0.00 28.07                                                             
C  0.00  0.00 40.54                                                             
C  0.00  0.00 53.01                                                             
C  0.00  4.65  3.12                                                             
C  0.00  4.65 15.59                                                             
C  0.00  4.65 28.07                                                             
C  0.00  4.65 40.54                                                             
C  0.00  4.65 53.01                                                             
C  4.03  2.32  3.12                                                             
C  4.03  2.32 15.59                                                             
C  4.03  2.32 28.07                                                             
C  4.03  2.32 40.54                                                             
C  4.03  2.32 53.01                                                             
C  8.05  0.00  3.12                                                             
C  8.05  0.00 15.59                                                             
C  8.05  0.00 28.07                                                             
C  8.05  0.00 40.54                                                             
C  8.05  0.00 53.01                                                             
C  0.00  9.30  3.12                                                             
C  0.00  9.30 15.59                                                             
C  0.00  9.30 28.07                                                             
C  0.00  9.30 40.54                                                             
C  0.00  9.30 53.01                                                             
C  4.03  6.97  3.12                                                             
C  4.03  6.97 15.59                                                             
C  4.03  6.97 28.07                                                             
C  4.03  6.97 40.54                                                             
C  4.03  6.97 53.01                                                             
C  8.05  4.65  3.12                                                             
C  8.05  4.65 15.59                                                             
C  8.05  4.65 28.07                                                             
C  8.05  4.65 40.54                                                             
C  8.05  4.65 53.01                                                             
C 12.08  2.32  3.12                                                             
C 12.08  2.32 15.59                                                             
C 12.08  2.32 28.07                                                             
C 12.08  2.32 40.54                                                             
C 12.08  2.32 53.01                                                             
C 16.10  0.00  3.12                                                             
C 16.10  0.00 15.59                                                             
C 16.10  0.00 28.07                                                             
C 16.10  0.00 40.54                                                             
C 16.10  0.00 53.01                                                             
C  0.00 13.95  3.12                                                             
C  0.00 13.95 15.59                                                             
C  0.00 13.95 28.07                                                             
C  0.00 13.95 40.54                                                             
C  0.00 13.95 53.01                                                             
C  4.03 11.62  3.12                                                             
C  4.03 11.62 15.59                                                             
C  4.03 11.62 28.07                                                             
C  4.03 11.62 40.54                                                             
C  4.03 11.62 53.01                                                             
C  8.05  9.30  3.12                                                             
C  8.05  9.30 15.59                                                             
C  8.05  9.30 28.07                                                             
C  8.05  9.30 40.54                                                             
C  8.05  9.30 53.01                                                             
C 12.08  6.97  3.12                                                             
C 12.08  6.97 15.59                                                             
C 12.08  6.97 28.07                                                             
C 12.08  6.97 40.54                                                             
C 12.08  6.97 53.01                                                             
C 16.10  4.65  3.12                                                             
C 16.10  4.65 15.59                                                             
C 16.10  4.65 28.07                                                             
C 16.10  4.65 40.54                                                             
C 16.10  4.65 53.01                                                             
C 20.13  2.32  3.12                                                             
C 20.13  2.32 15.59                                                             
C 20.13  2.32 28.07                                                             
C 20.13  2.32 40.54                                                             
C 20.13  2.32 53.01                                                             
C 24.16  0.00  3.12                                                             
C 24.16  0.00 15.59                                                             
C 24.16  0.00 28.07                                                             
C 24.16  0.00 40.54                                                             
C 24.16  0.00 53.01                                                             
C  4.03 16.27  3.12                                                             
C  4.03 16.27 15.59                                                             
C  4.03 16.27 28.07                                                             
C  4.03 16.27 40.54                                                             
C  4.03 16.27 53.01                                                             
C  8.05 13.95  3.12                                                             
C  8.05 13.95 15.59                                                             
C  8.05 13.95 28.07                                                             
C  8.05 13.95 40.54                                                             
C  8.05 13.95 53.01                                                             
C 12.08 11.62  3.12                                                             
C 12.08 11.62 15.59                                                             
C 12.08 11.62 28.07                                                             
C 12.08 11.62 40.54                                                             
C 12.08 11.62 53.01                                                             
C 16.10  9.30  3.12                                                             
C 16.10  9.30 15.59                                                             
C 16.10  9.30 28.07                                                             
C 16.10  9.30 40.54                                                             
C 16.10  9.30 53.01                                                             
C 20.13  6.97  3.12                                                             
C 20.13  6.97 15.59                                                             
C 20.13  6.97 28.07                                                             
C 20.13  6.97 40.54                                                             
C 20.13  6.97 53.01                                                             
C 24.16  4.65  3.12                                                             
C 24.16  4.65 15.59                                                             
C 24.16  4.65 28.07                                                             
C 24.16  4.65 40.54                                                             
C 24.16  4.65 53.01                                                             
C 28.18  2.32  3.12                                                             
C 28.18  2.32 15.59                                                             
C 28.18  2.32 28.07                                                             
C 28.18  2.32 40.54                                                             
C 28.18  2.32 53.01                                                             
C 12.08 16.27  3.12                                                             
C 12.08 16.27 15.59                                                             
C 12.08 16.27 28.07                                                             
C 12.08 16.27 40.54                                                             
C 12.08 16.27 53.01                                                             
C 16.10 13.95  3.12                                                             
C 16.10 13.95 15.59                                                             
C 16.10 13.95 28.07                                                             
C 16.10 13.95 40.54                                                             
C 16.10 13.95 53.01                                                             
C 20.13 11.62  3.12                                                             
C 20.13 11.62 15.59                                                             
C 20.13 11.62 28.07                                                             
C 20.13 11.62 40.54                                                             
C 20.13 11.62 53.01                                                             
C 24.16  9.30  3.12                                                             
C 24.16  9.30 15.59                                                             
C 24.16  9.30 28.07                                                             
C 24.16  9.30 40.54                                                             
C 24.16  9.30 53.01                                                             
C 28.18  6.97  3.12                                                             
C 28.18  6.97 15.59                                                             
C 28.18  6.97 28.07                                                             
C 28.18  6.97 40.54                                                             
C 28.18  6.97 53.01                                                             
C 20.13 16.27  3.12                                                             
C 20.13 16.27 15.59                                                             
C 20.13 16.27 28.07                                                             
C 20.13 16.27 40.54                                                             
C 20.13 16.27 53.01                                                             
C 24.16 13.95  3.12                                                             
C 24.16 13.95 15.59                                                             
C 24.16 13.95 28.07                                                             
C 24.16 13.95 40.54                                                             
C 24.16 13.95 53.01                                                             
C 28.18 11.62  3.12                                                             
C 28.18 11.62 15.59                                                             
C 28.18 11.62 28.07                                                             
C 28.18 11.62 40.54                                                             
C 28.18 11.62 53.01                                                             
C 28.18 16.27  3.12                                                             
C 28.18 16.27 15.59                                                             
C 28.18 16.27 28.07                                                             
C 28.18 16.27 40.54                                                             
C 28.18 16.27 53.01                                                             
C  0.00  0.00  9.36                                                             
C  0.00  0.00 21.83                                                             
C  0.00  0.00 34.30                                                             
C  0.00  0.00 46.78                                                             
C  0.00  0.00 59.25                                                             
C  0.00  4.65  9.36                                                             
C  0.00  4.65 21.83                                                             
C  0.00  4.65 34.30                                                             
C  0.00  4.65 46.78                                                             
C  0.00  4.65 59.25                                                             
C  4.03  2.32  9.36                                                             
C  4.03  2.32 21.83                                                             
C  4.03  2.32 34.30                                                             
C  4.03  2.32 46.78                                                             
C  4.03  2.32 59.25                                                             
C  8.05  0.00  9.36                                                             
C  8.05  0.00 21.83                                                             
C  8.05  0.00 34.30                                                             
C  8.05  0.00 46.78                                                             
C  8.05  0.00 59.25                                                             
C  0.00  9.30  9.36                                                             
C  0.00  9.30 21.83                                                             
C  0.00  9.30 34.30                                                             
C  0.00  9.30 46.78                                                             
C  0.00  9.30 59.25                                                             
C  4.03  6.97  9.36                                                             
C  4.03  6.97 21.83                                                             
C  4.03  6.97 34.30                                                             
C  4.03  6.97 46.78                                                             
C  4.03  6.97 59.25                                                             
C  8.05  4.65  9.36                                                             
C  8.05  4.65 21.83                                                             
C  8.05  4.65 34.30                                                             
C  8.05  4.65 46.78                                                             
C  8.05  4.65 59.25                                                             
C 12.08  2.32  9.36                                                             
C 12.08  2.32 21.83                                                             
C 12.08  2.32 34.30                                                             
C 12.08  2.32 46.78                                                             
C 12.08  2.32 59.25                                                             
C 16.10  0.00  9.36                                                             
C 16.10  0.00 21.83                                                             
C 16.10  0.00 34.30                                                             
C 16.10  0.00 46.78                                                             
C 16.10  0.00 59.25                                                             
C  0.00 13.95  9.36                                                             
C  0.00 13.95 21.83                                                             
C  0.00 13.95 34.30                                                             
C  0.00 13.95 46.78                                                             
C  0.00 13.95 59.25                                                             
C  4.03 11.62  9.36                                                             
C  4.03 11.62 21.83                                                             
C  4.03 11.62 34.30                                                             
C  4.03 11.62 46.78                                                             
C  4.03 11.62 59.25                                                             
C  8.05  9.30  9.36                                                             
C  8.05  9.30 21.83                                                             
C  8.05  9.30 34.30                                                             
C  8.05  9.30 46.78                                                             
C  8.05  9.30 59.25                                                             
C 12.08  6.97  9.36                                                             
C 12.08  6.97 21.83                                                             
C 12.08  6.97 34.30                                                             
C 12.08  6.97 46.78                                                             
C 12.08  6.97 59.25                                                             
C 16.10  4.65  9.36                                                             
C 16.10  4.65 21.83                                                             
C 16.10  4.65 34.30                                                             
C 16.10  4.65 46.78                                                             
C 16.10  4.65 59.25                                                             
C 20.13  2.32  9.36                                                             
C 20.13  2.32 21.83                                                             
C 20.13  2.32 34.30                                                             
C 20.13  2.32 46.78                                                             
C 20.13  2.32 59.25                                                             
C 24.16  0.00  9.36                                                             
C 24.16  0.00 21.83                                                             
C 24.16  0.00 34.30                                                             
C 24.16  0.00 46.78                                                             
C 24.16  0.00 59.25                                                             
C  4.03 16.27  9.36                                                             
C  4.03 16.27 21.83                                                             
C  4.03 16.27 34.30                                                             
C  4.03 16.27 46.78                                                             
C  4.03 16.27 59.25                                                             
C  8.05 13.95  9.36                                                             
C  8.05 13.95 21.83                                                             
C  8.05 13.95 34.30                                                             
C  8.05 13.95 46.78                                                             
C  8.05 13.95 59.25                                                             
C 12.08 11.62  9.36                                                             
C 12.08 11.62 21.83                                                             
C 12.08 11.62 34.30                                                             
C 12.08 11.62 46.78                                                             
C 12.08 11.62 59.25                                                             
C 16.10  9.30  9.36                                                             
C 16.10  9.30 21.83                                                             
C 16.10  9.30 34.30                                                             
C 16.10  9.30 46.78                                                             
C 16.10  9.30 59.25                                                             
C 20.13  6.97  9.36                                                             
C 20.13  6.97 21.83                                                             
C 20.13  6.97 34.30                                                             
C 20.13  6.97 46.78                                                             
C 20.13  6.97 59.25                                                             
C 24.16  4.65  9.36                                                             
C 24.16  4.65 21.83                                                             
C 24.16  4.65 34.30                                                             
C 24.16  4.65 46.78                                                             
C 24.16  4.65 59.25                                                             
C 28.18  2.32  9.36                                                             
C 28.18  2.32 21.83                                                             
C 28.18  2.32 34.30                                                             
C 28.18  2.32 46.78                                                             
C 28.18  2.32 59.25                                                             
C 12.08 16.27  9.36                                                             
C 12.08 16.27 21.83                                                             
C 12.08 16.27 34.30                                                             
C 12.08 16.27 46.78                                                             
C 12.08 16.27 59.25                                                             
C 16.10 13.95  9.36                                                             
C 16.10 13.95 21.83                                                             
C 16.10 13.95 34.30                                                             
C 16.10 13.95 46.78                                                             
C 16.10 13.95 59.25                                                             
C 20.13 11.62  9.36                                                             
C 20.13 11.62 21.83                                                             
C 20.13 11.62 34.30                                                             
C 20.13 11.62 46.78                                                             
C 20.13 11.62 59.25                                                             
C 24.16  9.30  9.36                                                             
C 24.16  9.30 21.83                                                             
C 24.16  9.30 34.30                                                             
C 24.16  9.30 46.78                                                             
C 24.16  9.30 59.25                                                             
C 28.18  6.97  9.36                                                             
C 28.18  6.97 21.83                                                             
C 28.18  6.97 34.30                                                             
C 28.18  6.97 46.78                                                             
C 28.18  6.97 59.25                                                             
C 20.13 16.27  9.36                                                             
C 20.13 16.27 21.83                                                             
C 20.13 16.27 34.30                                                             
C 20.13 16.27 46.78                                                             
C 20.13 16.27 59.25                                                             
C 24.16 13.95  9.36                                                             
C 24.16 13.95 21.83                                                             
C 24.16 13.95 34.30                                                             
C 24.16 13.95 46.78                                                             
C 24.16 13.95 59.25                                                             
C 28.18 11.62  9.36                                                             
C 28.18 11.62 21.83                                                             
C 28.18 11.62 34.30                                                             
C 28.18 11.62 46.78                                                             
C 28.18 11.62 59.25                                                             
C 28.18 16.27  9.36                                                             
C 28.18 16.27 21.83                                                             
C 28.18 16.27 34.30                                                             
C 28.18 16.27 46.78                                                             
C 28.18 16.27 59.25                                                             
C  1.34  2.32  3.12                                                             
C  1.34  2.32 15.59                                                             
C  1.34  2.32 28.07                                                             
C  1.34  2.32 40.54                                                             
C  1.34  2.32 53.01                                                             
C  5.37  0.00  3.12                                                             
C  5.37  0.00 15.59                                                             
C  5.37  0.00 28.07                                                             
C  5.37  0.00 40.54                                                             
C  5.37  0.00 53.01                                                             
C  1.34  6.97  3.12                                                             
C  1.34  6.97 15.59                                                             
C  1.34  6.97 28.07                                                             
C  1.34  6.97 40.54                                                             
C  1.34  6.97 53.01                                                             
C  5.37  4.65  3.12                                                             
C  5.37  4.65 15.59                                                             
C  5.37  4.65 28.07                                                             
C  5.37  4.65 40.54                                                             
C  5.37  4.65 53.01                                                             
C  9.39  2.32  3.12                                                             
C  9.39  2.32 15.59                                                             
C  9.39  2.32 28.07                                                             
C  9.39  2.32 40.54                                                             
C  9.39  2.32 53.01                                                             
C 13.42  0.00  3.12                                                             
C 13.42  0.00 15.59                                                             
C 13.42  0.00 28.07                                                             
C 13.42  0.00 40.54                                                             
C 13.42  0.00 53.01                                                             
C  1.34 11.62  3.12                                                             
C  1.34 11.62 15.59                                                             
C  1.34 11.62 28.07                                                             
C  1.34 11.62 40.54                                                             
C  1.34 11.62 53.01                                                             
C  5.37  9.30  3.12                                                             
C  5.37  9.30 15.59                                                             
C  5.37  9.30 28.07                                                             
C  5.37  9.30 40.54                                                             
C  5.37  9.30 53.01                                                             
C  9.39  6.97  3.12                                                             
C  9.39  6.97 15.59                                                             
C  9.39  6.97 28.07                                                             
C  9.39  6.97 40.54                                                             
C  9.39  6.97 53.01                                                             
C 13.42  4.65  3.12                                                             
C 13.42  4.65 15.59                                                             
C 13.42  4.65 28.07                                                             
C 13.42  4.65 40.54                                                             
C 13.42  4.65 53.01                                                             
C 17.45  2.32  3.12                                                             
C 17.45  2.32 15.59                                                             
C 17.45  2.32 28.07                                                             
C 17.45  2.32 40.54                                                             
C 17.45  2.32 53.01                                                             
C 21.47  0.00  3.12                                                             
C 21.47  0.00 15.59                                                             
C 21.47  0.00 28.07                                                             
C 21.47  0.00 40.54                                                             
C 21.47  0.00 53.01                                                             
C  1.34 16.27  3.12                                                             
C  1.34 16.27 15.59                                                             
C  1.34 16.27 28.07                                                             
C  1.34 16.27 40.54                                                             
C  1.34 16.27 53.01                                                             
C  5.37 13.95  3.12                                                             
C  5.37 13.95 15.59                                                             
C  5.37 13.95 28.07                                                             
C  5.37 13.95 40.54                                                             
C  5.37 13.95 53.01                                                             
C  9.39 11.62  3.12                                                             
C  9.39 11.62 15.59                                                             
C  9.39 11.62 28.07                                                             
C  9.39 11.62 40.54                                                             
C  9.39 11.62 53.01                                                             
C 13.42  9.30  3.12                                                             
C 13.42  9.30 15.59                                                             
C 13.42  9.30 28.07                                                             
C 13.42  9.30 40.54                                                             
C 13.42  9.30 53.01                                                             
C 17.45  6.97  3.12                                                             
C 17.45  6.97 15.59                                                             
C 17.45  6.97 28.07                                                             
C 17.45  6.97 40.54                                                             
C 17.45  6.97 53.01                                                             
C 21.47  4.65  3.12                                                             
C 21.47  4.65 15.59                                                             
C 21.47  4.65 28.07                                                             
C 21.47  4.65 40.54                                                             
C 21.47  4.65 53.01                                                             
C 25.50  2.32  3.12                                                             
C 25.50  2.32 15.59                                                             
C 25.50  2.32 28.07                                                             
C 25.50  2.32 40.54                                                             
C 25.50  2.32 53.01                                                             
C 29.52  0.00  3.12                                                             
C 29.52  0.00 15.59                                                             
C 29.52  0.00 28.07                                                             
C 29.52  0.00 40.54                                                             
C 29.52  0.00 53.01                                                             
C  9.39 16.27  3.12                                                             
C  9.39 16.27 15.59                                                             
C  9.39 16.27 28.07                                                             
C  9.39 16.27 40.54                                                             
C  9.39 16.27 53.01                                                             
C 13.42 13.95  3.12                                                             
C 13.42 13.95 15.59                                                             
C 13.42 13.95 28.07                                                             
C 13.42 13.95 40.54                                                             
C 13.42 13.95 53.01                                                             
C 17.45 11.62  3.12                                                             
C 17.45 11.62 15.59                                                             
C 17.45 11.62 28.07                                                             
C 17.45 11.62 40.54                                                             
C 17.45 11.62 53.01                                                             
C 21.47  9.30  3.12                                                             
C 21.47  9.30 15.59                                                             
C 21.47  9.30 28.07                                                             
C 21.47  9.30 40.54                                                             
C 21.47  9.30 53.01                                                             
C 25.50  6.97  3.12                                                             
C 25.50  6.97 15.59                                                             
C 25.50  6.97 28.07                                                             
C 25.50  6.97 40.54                                                             
C 25.50  6.97 53.01                                                             
C 29.52  4.65  3.12                                                             
C 29.52  4.65 15.59                                                             
C 29.52  4.65 28.07                                                             
C 29.52  4.65 40.54                                                             
C 29.52  4.65 53.01                                                             
C 17.45 16.27  3.12                                                             
C 17.45 16.27 15.59                                                             
C 17.45 16.27 28.07                                                             
C 17.45 16.27 40.54                                                             
C 17.45 16.27 53.01                                                             
C 21.47 13.95  3.12                                                             
C 21.47 13.95 15.59                                                             
C 21.47 13.95 28.07                                                             
C 21.47 13.95 40.54                                                             
C 21.47 13.95 53.01                                                             
C 25.50 11.62  3.12                                                             
C 25.50 11.62 15.59                                                             
C 25.50 11.62 28.07                                                             
C 25.50 11.62 40.54                                                             
C 25.50 11.62 53.01                                                             
C 29.52  9.30  3.12                                                             
C 29.52  9.30 15.59                                                             
C 29.52  9.30 28.07                                                             
C 29.52  9.30 40.54                                                             
C 29.52  9.30 53.01                                                             
C 25.50 16.27  3.12                                                             
C 25.50 16.27 15.59                                                             
C 25.50 16.27 28.07                                                             
C 25.50 16.27 40.54                                                             
C 25.50 16.27 53.01                                                             
C 29.52 13.95  3.12                                                             
C 29.52 13.95 15.59                                                             
C 29.52 13.95 28.07                                                             
C 29.52 13.95 40.54                                                             
C 29.52 13.95 53.01                                                             
C  2.68  0.00  9.36                                                             
C  2.68  0.00 21.83                                                             
C  2.68  0.00 34.30                                                             
C  2.68  0.00 46.78                                                             
C  2.68  0.00 59.25                                                             
C  2.68  4.65  9.36                                                             
C  2.68  4.65 21.83                                                             
C  2.68  4.65 34.30                                                             
C  2.68  4.65 46.78                                                             
C  2.68  4.65 59.25                                                             
C  6.71  2.32  9.36                                                             
C  6.71  2.32 21.83                                                             
C  6.71  2.32 34.30                                                             
C  6.71  2.32 46.78                                                             
C  6.71  2.32 59.25                                                             
C 10.74  0.00  9.36                                                             
C 10.74  0.00 21.83                                                             
C 10.74  0.00 34.30                                                             
C 10.74  0.00 46.78                                                             
C 10.74  0.00 59.25                                                             
C  2.68  9.30  9.36                                                             
C  2.68  9.30 21.83                                                             
C  2.68  9.30 34.30                                                             
C  2.68  9.30 46.78                                                             
C  2.68  9.30 59.25                                                             
C  6.71  6.97  9.36                                                             
C  6.71  6.97 21.83                                                             
C  6.71  6.97 34.30                                                             
C  6.71  6.97 46.78                                                             
C  6.71  6.97 59.25                                                             
C 10.74  4.65  9.36                                                             
C 10.74  4.65 21.83                                                             
C 10.74  4.65 34.30                                                             
C 10.74  4.65 46.78                                                             
C 10.74  4.65 59.25                                                             
C 14.76  2.32  9.36                                                             
C 14.76  2.32 21.83                                                             
C 14.76  2.32 34.30                                                             
C 14.76  2.32 46.78                                                             
C 14.76  2.32 59.25                                                             
C 18.79  0.00  9.36                                                             
C 18.79  0.00 21.83                                                             
C 18.79  0.00 34.30                                                             
C 18.79  0.00 46.78                                                             
C 18.79  0.00 59.25                                                             
C  2.68 13.95  9.36                                                             
C  2.68 13.95 21.83                                                             
C  2.68 13.95 34.30                                                             
C  2.68 13.95 46.78                                                             
C  2.68 13.95 59.25                                                             
C  6.71 11.62  9.36                                                             
C  6.71 11.62 21.83                                                             
C  6.71 11.62 34.30                                                             
C  6.71 11.62 46.78                                                             
C  6.71 11.62 59.25                                                             
C 10.74  9.30  9.36                                                             
C 10.74  9.30 21.83                                                             
C 10.74  9.30 34.30                                                             
C 10.74  9.30 46.78                                                             
C 10.74  9.30 59.25                                                             
C 14.76  6.97  9.36                                                             
C 14.76  6.97 21.83                                                             
C 14.76  6.97 34.30                                                             
C 14.76  6.97 46.78                                                             
C 14.76  6.97 59.25                                                             
C 18.79  4.65  9.36                                                             
C 18.79  4.65 21.83                                                             
C 18.79  4.65 34.30                                                             
C 18.79  4.65 46.78                                                             
C 18.79  4.65 59.25                                                             
C 22.81  2.32  9.36                                                             
C 22.81  2.32 21.83                                                             
C 22.81  2.32 34.30                                                             
C 22.81  2.32 46.78                                                             
C 22.81  2.32 59.25                                                             
C 26.84  0.00  9.36                                                             
C 26.84  0.00 21.83                                                             
C 26.84  0.00 34.30                                                             
C 26.84  0.00 46.78                                                             
C 26.84  0.00 59.25                                                             
C  6.71 16.27  9.36                                                             
C  6.71 16.27 21.83                                                             
C  6.71 16.27 34.30                                                             
C  6.71 16.27 46.78                                                             
C  6.71 16.27 59.25                                                             
C 10.74 13.95  9.36                                                             
C 10.74 13.95 21.83                                                             
C 10.74 13.95 34.30                                                             
C 10.74 13.95 46.78                                                             
C 10.74 13.95 59.25                                                             
C 14.76 11.62  9.36                                                             
C 14.76 11.62 21.83                                                             
C 14.76 11.62 34.30                                                             
C 14.76 11.62 46.78                                                             
C 14.76 11.62 59.25                                                             
C 18.79  9.30  9.36                                                             
C 18.79  9.30 21.83                                                             
C 18.79  9.30 34.30                                                             
C 18.79  9.30 46.78                                                             
C 18.79  9.30 59.25                                                             
C 22.81  6.97  9.36                                                             
C 22.81  6.97 21.83                                                             
C 22.81  6.97 34.30                                                             
C 22.81  6.97 46.78                                                             
C 22.81  6.97 59.25                                                             
C 26.84  4.65  9.36                                                             
C 26.84  4.65 21.83                                                             
C 26.84  4.65 34.30                                                             
C 26.84  4.65 46.78                                                             
C 26.84  4.65 59.25                                                             
C 30.86  2.32  9.36                                                             
C 30.86  2.32 21.83                                                             
C 30.86  2.32 34.30                                                             
C 30.86  2.32 46.78                                                             
C 30.86  2.32 59.25                                                             
C 14.76 16.27  9.36                                                             
C 14.76 16.27 21.83                                                             
C 14.76 16.27 34.30                                                             
C 14.76 16.27 46.78                                                             
C 14.76 16.27 59.25                                                             
C 18.79 13.95  9.36                                                             
C 18.79 13.95 21.83                                                             
C 18.79 13.95 34.30                                                             
C 18.79 13.95 46.78                                                             
C 18.79 13.95 59.25                                                             
C 22.81 11.62  9.36                                                             
C 22.81 11.62 21.83                                                             
C 22.81 11.62 34.30                                                             
C 22.81 11.62 46.78                                                             
C 22.81 11.62 59.25                                                             
C 26.84  9.30  9.36                                                             
C 26.84  9.30 21.83                                                             
C 26.84  9.30 34.30                                                             
C 26.84  9.30 46.78                                                             
C 26.84  9.30 59.25                                                             
C 30.86  6.97  9.36                                                             
C 30.86  6.97 21.83                                                             
C 30.86  6.97 34.30                                                             
C 30.86  6.97 46.78                                                             
C 30.86  6.97 59.25                                                             
C 22.81 16.27  9.36                                                             
C 22.81 16.27 21.83                                                             
C 22.81 16.27 34.30                                                             
C 22.81 16.27 46.78                                                             
C 22.81 16.27 59.25                                                             
C 26.84 13.95  9.36                                                             
C 26.84 13.95 21.83                                                             
C 26.84 13.95 34.30                                                             
C 26.84 13.95 46.78                                                             
C 26.84 13.95 59.25                                                             
C 30.86 11.62  9.36                                                             
C 30.86 11.62 21.83                                                             
C 30.86 11.62 34.30                                                             
C 30.86 11.62 46.78                                                             
C 30.86 11.62 59.25                                                             
C 30.86 16.27  9.36                                                             
C 30.86 16.27 21.83                                                             
C 30.86 16.27 34.30                                                             
C 30.86 16.27 46.78                                                             
C 30.86 16.27 59.25                                                             
%ENDBLOCK POSITIONS_ABS                                                         

--------------------------------------------------------------------------------
-------------------------------- END INPUT FILE --------------------------------
--------------------------------------------------------------------------------


 
<<<<<<<<<<<<<<<<<<<<<<<<<<<<<<<<< Full system >>>>>>>>>>>>>>>>>>>>>>>>>>>>>>>>>>
<<<<<<<<<<<<<<<<<<<<<<<<<<< PAW Dataset information >>>>>>>>>>>>>>>>>>>>>>>>>>>
File: ~/pp/paw/c_pbe_abinit.paw; rc = 1.25 bohr; shape type =  3; rshape = 1.25 bohr;
  Atomic number:  6;  ionic charge:  4.000000
    Partial Wave 1: l = 0
    Partial Wave 2: l = 0
    Partial Wave 3: l = 1
    Partial Wave 4: l = 1
  Core charge supplied for Nonlinear Core Corrections
<<<<<<<<<<<<<<<<<<<<<<<<<<<<<<<<<<<<<<< >>>>>>>>>>>>>>>>>>>>>>>>>>>>>>>>>>>>>>>

-------------------------- Atom counting information ---------------------------
Symbol    Natoms    Nngwfs    Nprojs
  C        640      2560      5120
.......   ......    ......    ......
Totals:    640      2560      5120
--------------------------------------------------------------------------------

=============================== PSINC grid sizes ===============================
                      Simulation cell:   63 x  35 x 123
                              FFT-box:   63 x  35 x 117
                                  PPD:    7 x   5 x   1
Grid space d1=  0.511269841270a0 (KE cutoff=  29.06054Eh = 790.77748eV)
Grid space d2=  0.531142857143a0 (KE cutoff=  26.92659Eh = 732.70972eV)
Grid space d3=  0.507073170732a0 (KE cutoff=  29.54355Eh = 803.92101eV)
================================================================================
  
WARNING in cell_grid_distribute:
Average of less than one 23-slab per node, so workload cannot be
equally balanced between nodes.

********************* Fourier parallelisation information **********************
       Coarse grid (whole simulation cell) dimensions:     63    35   123
          Real-space ('12') slabs/node (min max mean):      3     4     3
         Recip-space ('23') slabs/node (min max mean):      0     1     0
********************************************************************************

********************* Fourier parallelisation information **********************
       Double grid (whole simulation cell) dimensions:    126    70   246
          Real-space ('12') slabs/node (min max mean):      6     7     6
         Recip-space ('23') slabs/node (min max mean):      1     2     1
********************************************************************************

Atom SCF Calculation for C  : Z (AE atom) =   6 : Z (PS atom) =   4
Config String: 2s2 2p2
Orbitals (num,occ):  2     2.00 2.00
Orbitals   (num,l):  2        0    1
Real-space Grid (nr,dr,rmax): 1293    0.0069659443    9.0000000000
Spherical Bessel Basis (nsws,lmax,cutoff):   37    2  161.4736382572
Confining potential (l,width,scale):  0    3.0000000000  100.0000000000
Confining potential (l,width,scale):  1    3.0000000000  100.0000000000
  1         -5.4966243538   -1.3415066196    4.5135257941   -1.6613421942
  2         -5.4660395227   -1.4172174419    4.4326892861   -1.6365362708
  3         -5.4759582348   -1.4337557188    4.4144498970   -1.6324663609
  4         -5.4843804720   -1.4365219414    4.4114201180   -1.6322033818
  5         -5.4882713954   -1.4381734139    4.4096331461   -1.6320227940
  6         -5.4902132675   -1.4390636620    4.4086785626   -1.6319270645
  7         -5.4912093711   -1.4395303631    4.4081823351   -1.6318789226
  8         -5.4917264140   -1.4397726342    4.4079268833   -1.6318551036
  9         -5.4919964206   -1.4398979410    4.4077958777   -1.6318434025
 10         -5.4921379132   -1.4399626875    4.4077287721   -1.6318376788
 11         -5.4922122245   -1.4399961532    4.4076943935   -1.6318348878
 12         -5.4922513136   -1.4400134684    4.4076767658   -1.6318335308
 13         -5.4922719001   -1.4400224400    4.4076677156   -1.6318328728
 14         -5.4922827535   -1.4400270959    4.4076630621   -1.6318325547
 15         -5.4922884809   -1.4400295164    4.4076606653   -1.6318324014
 16         -5.4922915059   -1.4400307770    4.4076594286   -1.6318323279
 17         -5.4922931051   -1.4400314347    4.4076587894   -1.6318322927
 18         -5.4922939512   -1.4400317785    4.4076584583   -1.6318322760
 19         -5.4922943993   -1.4400319585    4.4076582865   -1.6318322681
 20         -5.4922946368   -1.4400320529    4.4076581972   -1.6318322644
 21         -5.4922947627   -1.4400321025    4.4076581507   -1.6318322627
 22         -5.4922948296   -1.4400321287    4.4076581265   -1.6318322619
Atom SCF converged after  22 iterations to a total energy of     -5.49229483

Determining parallel strategy ...
... using space-filling curve
... NGWF load balancing: max     64;  min     64;  average     64
... Projector load balancing: max    128;  min    128;  average    128
... done
Calculating Ewald energy ...
              Ewald: real-space energy =    9509.243353
        Ewald: reciprocal-space energy =       0.067800
         Ewald: (sum_charge)**2 Energy =   11375.609033
         Ewald: (sum_charge**2) Energy =     899.320858
                          Ewald Energy =   -2765.618738
Basis initialisation ...... NGWF spheres initialised
... Projector spheres initialised
... NGWF tight boxes initialised
... Projector tight boxes initialised
... Tight-boxes gathered
... NGWF basis size (local,global):     693716  27896960
... PAW projector initialisation
... done

============================= Charge Augmentation ==============================
                           Aug box size:   11 x  11 x  11
================================================================================

========================== Sparse matrix information ===========================
                        Overlap matrix filling:  44.38%
                        Density kernel filling: 100.00%
              NGWF-Proj overlap matrix filling:  13.12%
                    Aug Overlap matrix filling:  47.81%
                    Hamiltonian matrix filling:  47.81%
                  NGWF diagonal matrix filling:   0.16%
                             KS matrix filling: 100.00% 
                           KSKS matrix filling: 100.00% 
================================================================================

Sparse matrix initialisation ... done
NGWF initialisation ...... done
============ Calculation of NGWF S^-1 using Hotelling algorithm ================ 
         Iteration  |  Frobenius norm and Maximum abs value    (of I-S*S_n^-1)   
               1       0.49178508E+02     0.97744493E+00
               2       0.48032196E+02     0.95672394E+00
               3       0.46289220E+02     0.91979234E+00
               4       0.43994489E+02     0.85907420E+00
               5       0.41218818E+02     0.76870127E+00
               6       0.37937734E+02     0.68739712E+00
               7       0.34424132E+02     0.63747095E+00
               8       0.31051106E+02     0.59568109E+00
               9       0.27544800E+02     0.55273770E+00
              10       0.23187705E+02     0.48772998E+00
              11       0.17486479E+02     0.38333871E+00
              12       0.10741230E+02     0.24151046E+00
              13       0.45962131E+01     0.10152745E+00
              14       0.10074220E+01     0.20428276E-01
              15       0.58627906E-01     0.10185522E-02
              16       0.25931477E-03     0.33322551E-05
              17       0.77012471E-08     0.59841798E-10
              18       0.81412814E-13     0.43298698E-14
================================================================================
Calculating core density ...
================================= Core Density =================================
               Core den box size:   21 x  21 x  21
================================================================================
 ... done
Up spin density kernel initialisation ...... done

Writing density kernel to file "3.3003376_GO_manual_4x64graphite.dkn" ... done

>>> Optimising kernel for current NGWFs:

--------------------------- Ensemble-DFT optimisation --------------------------
Running ScaLAPACK on   40 processor(s).

--------------------------------------------------------------------------------
  Iter                              Commutator    Free_energy(A=E-TS)     DeltaA
#    0                          0.000042272402   -3656.51715500296041  -3.66E+03

Step                       =       0.381966011250
Energy                     =   -3656.517119815475
Entropy (-TS)              =      -0.000035187549
Free energy (A=E-TS)       =   -3656.517155002960
Est. 0K Energy 0.5*(E+A)   =   -3656.517137409218
Residual Non-orthogonality =       0.000000000000
Residual N_electrons       =       0.000000000064

Spin          Integrated_Ne            Fermi_level     Delta_Fermi_level
   1      2559.999999999711         0.221023481021              2.21E-01

                           Spin 1          
     Orb      H-eigenvalues     Occupancies
       1 |    -0.5043440057    1.0000000000 | 
                          ------
    1276 |     0.1875863947    0.9999740314 | 
    1277 |     0.1881958687    0.9999685204 | 
    1278 |     0.1882065121    0.9999684145 | 
    1279 |     0.1886889235    0.9999632173 | 
    1280 |     0.1893010188    0.9999553746 | 
                 - Gap at zero temperature -
    1281 |     0.2552986313    0.0000199305 | 
    1282 |     0.2553032202    0.0000199017 | 
    1283 |     0.2553872010    0.0000193809 | 
    1284 |     0.2555299222    0.0000185268 | 
    1285 |     0.2555345342    0.0000184999 | 
                          ------
    2560 |     1.0551466013    0.0000000000 | 

                       |  Abs_value |  Threshold | Converged
     Delta_Free_energy |   3.66E+03 |   1.00E-06 |        No
     Delta_Energy      |   3.66E+03 |   1.00E-04 |        No
     Delta_Entropy     |   3.52E-05 |   1.00E-04 |       Yes
     Commutator        |   4.23E-05 |   1.00E-05 |        No
     Delta_Fermi_level |   2.21E-01 |   1.00E-03 |        No

  Line search of the free energy minimum:
  Step_type        Step             Free_energy   Predicted_free_energy
.   Initial    0.000000    -3656.51715500296041
.    Trial1    0.381966    -3656.51895323830149
.    Trial2    0.618034    -3656.51896497179087
. Quadratic    0.503297    -3656.51906350066156    -3656.51906419298712

--------------------------------------------------------------------------------
  Iter                              Commutator    Free_energy(A=E-TS)     DeltaA
#    1                          0.000022250096   -3656.51906350066156  -1.91E-03

Step                       =       0.503297313009
Energy                     =   -3656.519029525060
Entropy (-TS)              =      -0.000033975628
Free energy (A=E-TS)       =   -3656.519063500662
Est. 0K Energy 0.5*(E+A)   =   -3656.519046512861
Residual Non-orthogonality =       0.000000000000
Residual N_electrons       =       0.000000000026

Spin          Integrated_Ne            Fermi_level     Delta_Fermi_level
   1      2559.999999999882         0.223126800086              2.10E-03

                           Spin 1          
     Orb      H-eigenvalues     Occupancies
       1 |    -0.5034352635    1.0000000000 | 
                          ------
    1276 |     0.1896451387    0.9999743944 | 
    1277 |     0.1901275093    0.9999701815 | 
    1278 |     0.1901299057    0.9999701589 | 
    1279 |     0.1907727240    0.9999634433 | 
    1280 |     0.1912496721    0.9999575016 | 
                 - Gap at zero temperature -
    1281 |     0.2574890245    0.0000193900 | 
    1282 |     0.2574958571    0.0000193482 | 
    1283 |     0.2575981680    0.0000187331 | 
    1284 |     0.2577585828    0.0000178079 | 
    1285 |     0.2577822956    0.0000176750 | 
                          ------
    2560 |     1.0584951440    0.0000000000 | 

                       |  Abs_value |  Threshold | Converged
     Delta_Free_energy |   1.91E-03 |   1.00E-06 |        No
     Delta_Energy      |   1.91E-03 |   1.00E-04 |        No
     Delta_Entropy     |   1.21E-06 |   1.00E-04 |       Yes
     Commutator        |   2.23E-05 |   1.00E-05 |        No
     Delta_Fermi_level |   2.10E-03 |   1.00E-03 |        No

  Line search of the free energy minimum:
  Step_type        Step             Free_energy   Predicted_free_energy
.   Initial    0.000000    -3656.51906350066156
.    Trial1    0.503297    -3656.51922165216411
.    Trial2    0.693021    -3656.51857817115342
. Quadratic    0.281030    -3656.51948704884808    -3656.51948583211197

--------------------------------------------------------------------------------
  Iter                              Commutator    Free_energy(A=E-TS)     DeltaA
#    2                          0.000013933663   -3656.51948704884808  -4.24E-04

Step                       =       0.281029915066
Energy                     =   -3656.519453480639
Entropy (-TS)              =      -0.000033567969
Free energy (A=E-TS)       =   -3656.519487048848
Est. 0K Energy 0.5*(E+A)   =   -3656.519470264744
Residual Non-orthogonality =       0.000000000000
Residual N_electrons       =      -0.000000000240

Spin          Integrated_Ne            Fermi_level     Delta_Fermi_level
   1      2560.000000001074         0.223683001084              5.56E-04

                           Spin 1          
     Orb      H-eigenvalues     Occupancies
       1 |    -0.5031905910    1.0000000000 | 
                          ------
    1276 |     0.1901390280    0.9999748933 | 
    1277 |     0.1906614993    0.9999703899 | 
    1278 |     0.1906644029    0.9999703628 | 
    1279 |     0.1912633103    0.9999641929 | 
    1280 |     0.1917807027    0.9999578380 | 
                 - Gap at zero temperature -
    1281 |     0.2580935523    0.0000190964 | 
    1282 |     0.2581008300    0.0000190525 | 
    1283 |     0.2582006474    0.0000184614 | 
    1284 |     0.2583730191    0.0000174834 | 
    1285 |     0.2583971106    0.0000173509 | 
                          ------
    2560 |     1.0594075758    0.0000000000 | 

                       |  Abs_value |  Threshold | Converged
     Delta_Free_energy |   4.24E-04 |   1.00E-06 |        No
     Delta_Energy      |   4.24E-04 |   1.00E-04 |        No
     Delta_Entropy     |   4.08E-07 |   1.00E-04 |       Yes
     Commutator        |   1.39E-05 |   1.00E-05 |        No
     Delta_Fermi_level |   5.56E-04 |   1.00E-03 |       Yes

  Line search of the free energy minimum:
  Step_type        Step             Free_energy   Predicted_free_energy
.   Initial    0.000000    -3656.51948704884808
.    Trial1    0.281030    -3656.51964361201817
.    Trial2    0.555652    -3656.51953761189270
. Quadratic    0.304633    -3656.51964453921482    -3656.51964455758616

--------------------------------------------------------------------------------
  Iter                              Commutator    Free_energy(A=E-TS)     DeltaA
#    3                          0.000009814108   -3656.51964453921482  -1.57E-04

Step                       =       0.304633130223
Energy                     =   -3656.519611274421
Entropy (-TS)              =      -0.000033264818
Free energy (A=E-TS)       =   -3656.519644539215
Est. 0K Energy 0.5*(E+A)   =   -3656.519627906818
Residual Non-orthogonality =       0.000000000000
Residual N_electrons       =       0.000000000024

Spin          Integrated_Ne            Fermi_level     Delta_Fermi_level
   1      2559.999999999894         0.224119921190              4.37E-04

                           Spin 1          
     Orb      H-eigenvalues     Occupancies
       1 |    -0.5029933128    1.0000000000 | 
                          ------
    1276 |     0.1905408668    0.9999751699 | 
    1277 |     0.1910721294    0.9999706347 | 
    1278 |     0.1910752144    0.9999706061 | 
    1279 |     0.1916649337    0.9999645898 | 
    1280 |     0.1921912560    0.9999581876 | 
                 - Gap at zero temperature -
    1281 |     0.2585614586    0.0000189104 | 
    1282 |     0.2585688946    0.0000188661 | 
    1283 |     0.2586685937    0.0000182814 | 
    1284 |     0.2588429722    0.0000173020 | 
    1285 |     0.2588671503    0.0000171704 | 
                          ------
    2560 |     1.0601330787    0.0000000000 | 

                       |  Abs_value |  Threshold | Converged
     Delta_Free_energy |   1.57E-04 |   1.00E-06 |        No
     Delta_Energy      |   1.58E-04 |   1.00E-04 |        No
     Delta_Entropy     |   3.03E-07 |   1.00E-04 |       Yes
     Commutator        |   9.81E-06 |   1.00E-05 |       Yes
     Delta_Fermi_level |   4.37E-04 |   1.00E-03 |       Yes

  Line search of the free energy minimum:
  Step_type        Step             Free_energy   Predicted_free_energy
.   Initial    0.000000    -3656.51964453921482
.    Trial1    0.304633    -3656.51971787882849
.    Trial2    0.570240    -3656.51962990074799
. Quadratic    0.272324    -3656.51971893664813    -3656.51971892592701

--------------------------------------------------------------------------------
  Iter                              Commutator    Free_energy(A=E-TS)     DeltaA
#    4                          0.000006946132   -3656.51971893664813  -7.44E-05

Step                       =       0.272323554341
Energy                     =   -3656.519685854725
[...]
 C   160 -- C   385       -0.10      5.37000
 C   159 -- C   384       -0.10      5.37000
 C   158 -- C   383       -0.10      5.37000
 C   157 -- C   382       -0.10      5.37000
 C   156 -- C   381       -0.10      5.37000
 C   155 -- C   355       -0.10      5.37000
 C   154 -- C   354       -0.10      5.37000
 C   153 -- C   353       -0.10      5.37000
 C   152 -- C   352       -0.10      5.37000
 C   151 -- C   351       -0.10      5.37000
 C   140 -- C   335       -0.10      5.37000
 C   139 -- C   334       -0.10      5.37000
 C   138 -- C   333       -0.10      5.37000
 C   137 -- C   332       -0.10      5.37000
 C   136 -- C   331       -0.10      5.37000
 C   115 -- C   325       -0.10      5.37000
 C   114 -- C   324       -0.10      5.37000
 C   113 -- C   323       -0.10      5.37000
 C   112 -- C   322       -0.10      5.37000
 C   111 -- C   321       -0.10      5.37000
 C   219 -- C   569       -0.10      5.37202
 C   218 -- C   568       -0.10      5.37202
 C   217 -- C   567       -0.10      5.37202
 C   216 -- C   566       -0.10      5.37202
 C   250 -- C   540       -0.10      5.37202
 C   249 -- C   539       -0.10      5.37202
 C   248 -- C   538       -0.10      5.37202
 C   247 -- C   537       -0.10      5.37202
 C   246 -- C   536       -0.10      5.37202
 C   220 -- C   570       -0.10      5.37202
 C   285 -- C   580       -0.10      5.37202
 C   284 -- C   579       -0.10      5.37202
 C   283 -- C   578       -0.10      5.37202
 C   282 -- C   577       -0.10      5.37202
 C   281 -- C   576       -0.10      5.37202
 C   260 -- C   605       -0.10      5.37202
 C   259 -- C   604       -0.10      5.37202
 C   258 -- C   603       -0.10      5.37202
 C   257 -- C   602       -0.10      5.37202
 C   256 -- C   601       -0.10      5.37202
 C   220 -- C   515       -0.10      5.37202
 C   219 -- C   514       -0.10      5.37202
 C   218 -- C   513       -0.10      5.37202
 C   217 -- C   512       -0.10      5.37202
 C   216 -- C   511       -0.10      5.37202
 C   195 -- C   540       -0.10      5.37202
 C   195 -- C   500       -0.10      5.37202
 C   194 -- C   539       -0.10      5.37202
 C   194 -- C   499       -0.10      5.37202
 C   193 -- C   538       -0.10      5.37202
 C   193 -- C   498       -0.10      5.37202
 C   192 -- C   537       -0.10      5.37202
 C   192 -- C   497       -0.10      5.37202
 C   191 -- C   536       -0.10      5.37202
 C   191 -- C   496       -0.10      5.37202
 C   180 -- C   515       -0.10      5.37202
 C   179 -- C   514       -0.10      5.37202
 C   178 -- C   513       -0.10      5.37202
 C   177 -- C   512       -0.10      5.37202
 C   176 -- C   511       -0.10      5.37202
 C    11 -- C   331       -0.10      5.37202
 C   205 -- C   550       -0.10      5.37202
 C   204 -- C   549       -0.10      5.37202
 C   203 -- C   548       -0.10      5.37202
 C   202 -- C   547       -0.10      5.37202
 C   201 -- C   546       -0.10      5.37202
 C    95 -- C   425       -0.10      5.37202
 C    95 -- C   365       -0.10      5.37202
 C    94 -- C   424       -0.10      5.37202
 C    94 -- C   364       -0.10      5.37202
 C    93 -- C   423       -0.10      5.37202
 C    93 -- C   363       -0.10      5.37202
 C    92 -- C   422       -0.10      5.37202
 C    92 -- C   362       -0.10      5.37202
 C    91 -- C   421       -0.10      5.37202
 C    91 -- C   361       -0.10      5.37202
 C    40 -- C   365       -0.10      5.37202
 C    39 -- C   364       -0.10      5.37202
 C    38 -- C   363       -0.10      5.37202
 C    37 -- C   362       -0.10      5.37202
 C    36 -- C   361       -0.10      5.37202
 C    15 -- C   335       -0.10      5.37202
 C    65 -- C   395       -0.10      5.37202
 C    65 -- C   345       -0.10      5.37202
 C    64 -- C   394       -0.10      5.37202
 C    64 -- C   344       -0.10      5.37202
 C    63 -- C   393       -0.10      5.37202
 C    30 -- C   355       -0.10      5.37202
 C    63 -- C   343       -0.10      5.37202
 C    62 -- C   392       -0.10      5.37202
 C    30 -- C   325       -0.10      5.37202
 C    14 -- C   334       -0.10      5.37202
 C    62 -- C   342       -0.10      5.37202
 C    61 -- C   391       -0.10      5.37202
 C    29 -- C   354       -0.10      5.37202
 C    61 -- C   341       -0.10      5.37202
 C    29 -- C   324       -0.10      5.37202
 C   260 -- C   550       -0.10      5.37202
 C   259 -- C   549       -0.10      5.37202
 C    28 -- C   353       -0.10      5.37202
 C   258 -- C   548       -0.10      5.37202
 C   257 -- C   547       -0.10      5.37202
 C   256 -- C   546       -0.10      5.37202
 C    28 -- C   323       -0.10      5.37202
 C    27 -- C   352       -0.10      5.37202
 C    13 -- C   333       -0.10      5.37202
 C    27 -- C   322       -0.10      5.37202
 C   120 -- C   395       -0.10      5.37202
 C    26 -- C   351       -0.10      5.37202
 C   119 -- C   394       -0.10      5.37202
 C   118 -- C   393       -0.10      5.37202
 C    55 -- C   335       -0.10      5.37202
 C   117 -- C   392       -0.10      5.37202
 C    26 -- C   321       -0.10      5.37202
 C   116 -- C   391       -0.10      5.37202
 C    54 -- C   334       -0.10      5.37202
 C    12 -- C   332       -0.10      5.37202
 C    53 -- C   333       -0.10      5.37202
 C   230 -- C   580       -0.10      5.37202
 C   230 -- C   525       -0.10      5.37202
 C   229 -- C   579       -0.10      5.37202
 C   229 -- C   524       -0.10      5.37202
 C   228 -- C   578       -0.10      5.37202
 C    52 -- C   332       -0.10      5.37202
 C   228 -- C   523       -0.10      5.37202
 C   227 -- C   577       -0.10      5.37202
 C   227 -- C   522       -0.10      5.37202
 C   226 -- C   576       -0.10      5.37202
 C   226 -- C   521       -0.10      5.37202
 C    51 -- C   331       -0.10      5.37202
 C    23 -- C   478       -0.10      5.37202
 C    49 -- C   469       -0.10      5.37202
 C    48 -- C   468       -0.10      5.37202
 C    47 -- C   467       -0.10      5.37202
 C    22 -- C   477       -0.10      5.37202
 C    46 -- C   466       -0.10      5.37202
 C    21 -- C   476       -0.10      5.37202
 C    85 -- C   355       -0.10      5.37202
 C    84 -- C   354       -0.10      5.37202
 C    83 -- C   353       -0.10      5.37202
 C    82 -- C   352       -0.10      5.37202
 C    81 -- C   351       -0.10      5.37202
 C    55 -- C   385       -0.10      5.37202
 C    54 -- C   384       -0.10      5.37202
 C    25 -- C   480       -0.10      5.37202
 C    53 -- C   383       -0.10      5.37202
 C    52 -- C   382       -0.10      5.37202
 C    51 -- C   381       -0.10      5.37202
 C    24 -- C   479       -0.10      5.37202
 C    50 -- C   470       -0.10      5.37202
 C    24 -- C   449       -0.10      5.37202
 C     6 -- C   416       -0.10      5.37202
 C    23 -- C   448       -0.10      5.37202
 C    22 -- C   447       -0.10      5.37202
 C    10 -- C   470       -0.10      5.37202
 C     5 -- C   450       -0.10      5.37202
 C    21 -- C   446       -0.10      5.37202
 C    10 -- C   420       -0.10      5.37202
 C     9 -- C   469       -0.10      5.37202
 C     9 -- C   419       -0.10      5.37202
 C     8 -- C   468       -0.10      5.37202
 C     4 -- C   449       -0.10      5.37202
 C   150 -- C   440       -0.10      5.37202
 C   149 -- C   439       -0.10      5.37202
 C   148 -- C   438       -0.10      5.37202
 C   147 -- C   437       -0.10      5.37202
 C     8 -- C   418       -0.10      5.37202
 C   146 -- C   436       -0.10      5.37202
 C     2 -- C   447       -0.10      5.37202
 C   135 -- C   460       -0.10      5.37202
 C     7 -- C   467       -0.10      5.37202
 C   134 -- C   459       -0.10      5.37202
 C   133 -- C   458       -0.10      5.37202
 C   132 -- C   457       -0.10      5.37202
 C   131 -- C   456       -0.10      5.37202
 C     7 -- C   417       -0.10      5.37202
 C     1 -- C   446       -0.10      5.37202
 C     6 -- C   466       -0.10      5.37202
 C    25 -- C   450       -0.10      5.37202
 C     3 -- C   448       -0.10      5.37202
 C   106 -- C   436       -0.10      5.37202
 C   106 -- C   376       -0.10      5.37202
 C    80 -- C   410       -0.10      5.37202
 C    79 -- C   409       -0.10      5.37202
 C    78 -- C   408       -0.10      5.37202
 C    77 -- C   407       -0.10      5.37202
 C    76 -- C   406       -0.10      5.37202
 C   135 -- C   410       -0.10      5.37202
 C   134 -- C   409       -0.10      5.37202
 C   133 -- C   408       -0.10      5.37202
 C   132 -- C   407       -0.10      5.37202
 C   131 -- C   406       -0.10      5.37202
 C   110 -- C   440       -0.10      5.37202
 C   110 -- C   380       -0.10      5.37202
 C   109 -- C   439       -0.10      5.37202
 C   109 -- C   379       -0.10      5.37202
 C   108 -- C   438       -0.10      5.37202
 C   108 -- C   378       -0.10      5.37202
 C   107 -- C   437       -0.10      5.37202
 C   107 -- C   377       -0.10      5.37202
 C   215 -- C   635       -0.10      5.38000
 C   214 -- C   634       -0.10      5.38000
 C   213 -- C   633       -0.10      5.38000
 C   212 -- C   632       -0.10      5.38000
 C   211 -- C   631       -0.10      5.38000
 C   190 -- C   620       -0.10      5.38000
 C   189 -- C   619       -0.10      5.38000
 C   188 -- C   618       -0.10      5.38000
 C   187 -- C   617       -0.10      5.38000
 C   186 -- C   616       -0.10      5.38000
 C   175 -- C   595       -0.10      5.38000
 C   174 -- C   594       -0.10      5.38000
 C   173 -- C   593       -0.10      5.38000
 C   172 -- C   592       -0.10      5.38000
 C   171 -- C   591       -0.10      5.38000
 C   245 -- C   640       -0.10      5.38000
 C   244 -- C   639       -0.10      5.38000
 C   243 -- C   638       -0.10      5.38000
 C   242 -- C   637       -0.10      5.38000
 C   241 -- C   636       -0.10      5.38000
==================================================


=================== Orbital energy and occupancy information ===================

      Total number of orbitals:    2560
        Occupancy sum (kernel):    1280.000000000
   Occupancy sum (eigenvalues):    1280.000000000
                 HOMO-LUMO gap:       0.000012376 Eh
                 Mid-gap level:       0.300456009 Eh

                        Orbital | Energy (Eh) | Occupancy
                            1    -0.458347040   1.0000000
                        .......   ...........   .........
                         1272     0.231865862   0.9999886
                         1273     0.232308167   0.9999869
                         1274     0.232337369   0.9999868
                         1275     0.236175836   0.9999555
                         1276     0.236179316   0.9999554
                         1277     0.236628206   0.9999487
                         1278     0.236631689   0.9999486
                         1279     0.237073389   0.9999409
                         1280     0.237512392   0.9999321
                         1281     0.300449821   0.0000343
                        ....... -- gap at 0K -- .........
                         1282     0.300462197   0.0000342
                         1283     0.300707467   0.0000316
                         1284     0.300719844   0.0000315
                         1285     0.301212975   0.0000271
                         1286     0.301215688   0.0000270
                         1287     0.301486154   0.0000248
                         1288     0.301488869   0.0000248
                         1289     0.301789302   0.0000226
                         1290     0.302067916   0.0000207
                         1291     0.302279305   0.0000192
                        .......   ...........   .........
                         2560     1.160173006   0.0000000

================================================================================

===================== Writing canonical molecular orbitals =====================
| Orbital  Energy (eV)  Norm     |
| HOMO      8.17565564  1.000000 | Writing "3.3003376_GO_manual_4x64graphite_HOMO.cube" ... done
Writing "3.3003376_GO_manual_4x64graphite_HOMO.dx" ... done
| LUMO      8.17599241  1.000000 | Writing "3.3003376_GO_manual_4x64graphite_LUMO.cube" ... done
Writing "3.3003376_GO_manual_4x64graphite_LUMO.dx" ... done
================================================================================
 
===================== Density of States (DOS) calculation ======================
Writing "3.3003376_GO_manual_4x64graphite_DOS.txt" ...  done
================================================================================
 
Writing bands to file "3.3003376_GO_manual_4x64graphite.val_bands" ... done
 
================ Projected Density of States (pDOS) calculation ================
 
Constructing AM resolved functions  ...... done
Writing NGWF plot files in formats: CUBE DX ...  done
 
Performing overlap integrals ...  done
 
Computing pDOS weights ...  done
 
All bands spilling parameter =   3.92 %
Occupancy-weighted spilling parameter =   0.88 %
 
 => Outputting data for OptaDOS <=
 
Writing pDOS weights to file "3.3003376_GO_manual_4x64graphite.val_pdos_bin" ... done
 
Writing band gradients to file "3.3003376_GO_manual_4x64graphite.val_dome_bin" ... done
 
Writing Castep output cell file to "3.3003376_GO_manual_4x64graphite-out.cell" ... done
 
 => Computing Gaussian smeared pDOS <= 
Writing "3.3003376_GO_manual_4x64graphite_PDOS.txt" ...  done
 
 => Computing Occupancy-weighted Gaussian smeared pDOS <= 
Writing "3.3003376_GO_manual_4x64graphite_occ_PDOS.txt" ...  done
  => Band centres: 
 S band centre of group 1:  -15.610034 eV
 P band centre of group 1:   -8.467558 eV
  Band centres done. <=
  => Integrated number of electrons in each AM band: 
 S num electrons of group 1:  577.437614
 P num electrons of group 1: 1960.056715
  Integrated number of electrons done. <=
================================================================================

------------------------------ TIMING INFORMATION ------------------------------
AVERAGE TIME:    4263.725s on     40 node(s)                                    
TOTAL TIME:      4263.725s on     40 node(s)                                    
================= AVERAGE TIMINGS FROM ALL NODES (CUMULATIVE) ==================
|| TAG                                    #calls    cpu time   %total  Gflops ||
|| work_imbalance                       :     1        0.00s   0.000%  ------ ||
|| paw_tcore_hartree_on_grid            :     1        0.00s   0.000%  ------ ||
|| paw_tcore_density                    :     1        0.01s   0.000%  ------ ||
|| paw_sphere_density_on_grid           :     1        0.01s   0.000%  ------ ||
|| sparse_set_to_garbage                :   183        0.03s   0.001%  ------ ||
|| paw_dij_hartree                      :   372        0.05s   0.001%  ------ ||
|| pseudo_make_structure_factor         :     1        0.05s   0.001%  ------ ||
|| basis_extract_function_from_box      :  2048        0.09s   0.002%  ------ ||
|| paw_species_calc_proj_prec_mat       :     1        0.12s   0.003%  ------ ||
|| paw_dataset_init                     :     1        0.15s   0.004%  ------ ||
|| density_init_guess_real              :     1        0.18s   0.004%  ------ ||
|| ngwfs_initialise_from_radial         :     2        0.66s   0.016%  ------ ||
|| restart_kernel_write                 :    17        0.99s   0.023%  ------ ||
|| sparse_init                          :     1        1.02s   0.024%  ------ ||
|| dense_normal_eigensolve              :     1        1.17s   0.028%  ------ ||
|| hartree_on_grid                      :   279        1.47s   0.035%  ------ ||
|| ewald_calculate_energy               :     1        2.59s   0.061%  ------ ||
|| projectors_init_fftbox_recip         :   161        3.12s   0.073%  ------ ||
|| fourier_apply_box_pair               :  3040        5.03s   0.118% 561.080 ||
|| basis_copy_function_to_box           : 26560        5.76s   0.135%  ------ ||
|| augmentation_screen_dij              :   286        6.31s   0.148%  ------ ||
|| sw_init                              :     1        6.73s   0.158%  ------ ||
|| sparse_embed_hotelling_invert_embed  :    31        9.06s   0.213%  ------ ||
|| ngwf_gradient_coeffs                 :    16       12.71s   0.298%  ------ ||
|| cell_grid_extract_box_real           : 11244       14.32s   0.336%  ------ ||
|| fourier_apply_cell_backward          :  8620       18.21s   0.427%  54.617 ||
|| fourier_apply_cell_forward           :  8063       19.90s   0.467%  46.753 ||
|| sparse_trace                         :  3368       20.46s   0.480%  ------ ||
|| cell_grid_deposit_box_real           : 35888       23.55s   0.552%  ------ ||
|| paw_dij_xc                           :   372       24.53s   0.575%  ------ ||
|| aug_nonlocal_mat                     :   356       37.53s   0.880%  ------ ||
|| density_fftbox_deposit_to_cell       : 17856       47.10s   1.105%  ------ ||
|| eigenstates_pdos                     :     1       48.12s   1.129%  ------ ||
|| eigenstates_calculate                :     1       51.91s   1.217%  ------ ||
|| augmentation_density_on_grid         :   279       56.14s   1.317%  ------ ||
|| function_ops_brappd_ketppd           :    64       65.57s   1.538%  ------ ||
|| hamiltonian_energy_components        :     4       66.71s   1.565%  ------ ||
|| nlxc_vdw_energy                      :   556       76.80s   1.801%  ------ ||
|| projectors_func_ovlp_box             :    32       77.65s   1.821%  ------ ||
|| xc_energy_potential                  :   278       83.37s   1.955%  ------ ||
|| properties_calculate                 :     1       92.37s   2.166%  ------ ||
|| integrals_kinetic                    :    31      112.64s   2.642%  ------ ||
|| dense_eigensolve                     :   243      117.33s   2.752%  ------ ||
|| potential_apply_to_ngwf_batch        :   352      137.53s   3.226%  ------ ||
|| sparse_product                       :  3410      155.47s   3.646%  ------ ||
|| restart_ngwfs_tightbox_output        :    15      158.65s   3.721%  ------ ||
|| basis_dot_function_with_box          : 8.902M     241.76s   5.670%  ------ ||
|| fourier_apply_box                    : 83728      259.48s   6.086% 980.153 ||
|| edft_diag_ngwf_ham                   :   242      265.98s   6.238%  ------ ||
|| projectors_gradient_batch            :    64      300.95s   7.058%  ------ ||
|| integrals_locpot_mat_els_batch       :   352      327.07s   7.671%  ------ ||
|| density_fftbox_interpolate_multiply  : 17856      346.34s   8.123%  ------ ||
|| density_batch_interp_deposit         :  1116      437.18s  10.253%  ------ ||
|| projectors_grad_precond_batch        :    64      441.72s  10.360%  ------ ||
|| integrals_locpot_dbl_grid            :    88      466.45s  10.940%  ------ ||
|| edft_apply_smearing_operator         :   242      523.01s  12.266%  ------ ||
|| basis_add_function_to_box            : 24.94M     651.25s  15.274%  ------ ||
|| ngwf_gradient_build_batch            :    64      791.05s  18.553%  ------ ||
|| density_batch_row_sums               :  1116      932.92s  21.881%  ------ ||
|| ngwf_gradient_batch                  :    64     1045.58s  24.523%  ------ ||
|| ngwf_gradient_lnv                    :    16     1076.07s  25.238%  ------ ||
|| density_on_dbl_grid                  :   279     1385.86s  32.503%  ------ ||
|| hamiltonian_lhxc_calculate           :   273     1498.05s  35.135%  ------ ||
|| edft_calculate                       :    16     2467.43s  57.870%  ------ ||
|| ngwf_cg_optimise                     :     1     4145.61s  97.230%  ------ ||
|| total_time                           :     1     4263.72s 100.000%  ------ ||
================================================================================
Overhead of generating timer report: 
- 0 ms averaging over threads,
- 5 ms ensuring consistency across MPI ranks,
- 0 ms printing in order.

Job completed: 26-02-2020 01:35 (-0000)

