 +---------------------------------------------------------------+
 |                                                               |
 |        ####### #     # ####### ####### ####### ######         |
 |        #     # ##    # #          #    #       #     #        |
 |        #     # # #   # #          #    #       #     #        |
 |        #     # #  #  # #####      #    #####   ######         |
 |        #     # #   # # #          #    #       #              |
 |        #     # #    ## #          #    #       #              |
 |        ####### #     # #######    #    ####### #              |
 |                                                               |
 |        Linear-Scaling Ab Initio Total Energy Program          |
 |                                                               |
 |          Release for academic collaborators of ODG            |
 |                                             Version 5.3.2.12  |
 |                                                               |
 +---------------------------------------------------------------+
 |                                                               |
 |  Authors:                                                     |
 |  Jacek Dziedzic, Peter D. Haynes, Nicholas D. M. Hine,        |
 |  Arash. A. Mostofi, Mike C. Payne and Chris-Kriton Skylaris   |
 |                                                               |
 |  Contributors:                                                |
 |  J. Aarons, L. Andrinopoulos, P. W. Avraam, R. A. Bell,       |
 |  A. Bhandari, G. A. Bramley, R. J. Charlton, S. J. Clark,     |
 |  R. J. Clements, G. C. Constantinescu, F. Corsetti,           |
 |  N. Corsini, O. Dieguez, S. M. M. Dubois, K. K. B. Duff,      |
 |  J. M. Escartin, A. Greco, H. Helal, Q. O. Hill, L. P. Lee,   |
 |  J.-H. Li, E. B. Linscott, G. Moynihan, D. D. O`Regan,        |
 |  O. K. Okan, M. J. S. Phipps, C. J. Pickard,                  |
 |  J. C. A. Prentice, M. I. J. Probert, L. E. Ratcliff,         |
 |  M. Robinson, A. Ruiz Serrano, J. S. Spencer, E. W. Tait,     |
 |  G. Teobaldi, D. Turban, V. Vitale, K. A. Wilkinson,          |
 |  C. Weber, J. C. Womack, N. Yeung and T. J. Zuehlsdorff       |
 |                                                               |
 |                                   Copyright (c) 2004-2020     |
 |                                                               |
 |  Please cite:                                                 |
 |  "Introducing ONETEP: Linear-scaling density functional       |
 |   simulations on parallel computers".                         |
 |   C.-K. Skylaris, P. D. Haynes, A. A. Mostofi, M. C. Payne.   |
 |   J. Chem. Phys. 122 084119 (2005).                           |
 |                                                               |
 |          in all publications arising from your use of ONETEP. |
 |                                                               |
 +---------------------------------------------------------------+
 |                                                               |
 |   ONETEP is based on developments described in the following  |
 |   publications:                                               |
 |                                                               |
 |  "Nonorthogonal generalized Wannier function pseudopotential  |
 |   plane-wave method".                                         |
 |   C.-K. Skylaris, A. A. Mostofi, P. D. Haynes, O. Dieguez,    |
 |   M. C. Payne.                                                |
 |   Phys. Rev. B 66 035119 (2002).                              |
 |                                                               |
 |  "Preconditioned iterative minimization for linear-scaling    |
 |   electronic structure calculations".                         |
 |   A. A. Mostofi, P. D. Haynes, C.-K. Skylaris, M. C. Payne.   |
 |   J. Chem. Phys. 119(17), pp.8842-8848 (2003).                |
 |                                                               |
 |  "Total-energy calculations on a real space grid with         |
 |   localized functions and a plane-wave basis".                |
 |   A. A. Mostofi, C.-K. Skylaris, P. D. Haynes, M. C. Payne.   |
 |   Comput. Phys. Commun. 147, pp.788-802 (2002).               |
 |                                                               |
 |  "Accurate kinetic energy evaluation in electronic structure  |
 |   calculations with localized functions on real space grids"  |
 |   C.-K. Skylaris, A. A. Mostofi, P. D. Haynes, C. J. Pickard, |
 |   M. C. Payne.                                                |
 |   Comput. Phys. Commun. 140, pp.315-322 (2001).               |
 |                                                               |
 |  "Accurate ionic forces and geometry optimization in linear-  |
 |   scaling density-functional theory with local orbitals"      |
 |   N. D. M. Hine, M. Robinson, P. D. Haynes, C.-K. Skylaris,   |
 |   M. C. Payne, and A. A. Mostofi.                             |
 |   Phys. Rev. B 83 195102 (2011).                              |
 |                                                               |
 +---------------------------------------------------------------+

Job started: 26-02-2020 00:43 (-0000)
 
Reading parameters from file "3.3808312_GO_manual_4x64graphite.dat" ...

WARNING: "cutoff_energy" not specified, but "psinc_spacing" specified.
         Using the latter to set the KE cutoff energy to  732.32021eV,
         thus *overriding* the default.

... done

If your calculation crashes here, before "Checking processes and threads..."
is displayed, then your stack size is insufficient.
If so, use "ulimit -s unlimited" at runtime.
You can disable this check with "check_stack_size F".

Checking processes and threads...
   Determining the default number of threads...
      No default threads set at compilation time: defaulting to 1.
      OpenMP library call suggests 4 threads.
      Hybrid MPI-OpenMP compilation detected.
      Number of MPI processes > 1.
      OMP_NUM_THREADS environment variable present and
      its value matches the one obtained from the OpenMP library call.
      Using this value as default.
      Default threads: 4
      Default applies to threads_max and threads_num_fftboxes.
      Settings in the input file override this default.
   ... done

   Running with 40 MPI processes.
   There are 10 MPI processes running on the same node as the root process.
   Each MPI process is using: 
               1 threads for simulation cell FFTs.
               1 threads for parallel FFT box operations.
               4 threads for loops over batched FFT box operations.
               4 threads in other parallel regions.
... done

Basic input checks...
Resetting ngwf_cg_rotate to TRUE for EDFT calculations
... done

Reading geometry and species blocks from file "3.3808312_GO_manual_4x64graphite.dat" ...
    
  PSINC grid spacing along a1 set to   0.511215680000a0 from input file.
  PSINC grid spacing along a2 set to   0.531284090000a0 from input file.
  PSINC grid spacing along a3 set to   0.507052230000a0 from input file.
  Number of PPD points along a3 set to 1.  This is 
  the default value, it may have been provided also in the input file.
... done
 Writing xyz coordinates to file "3.3808312_GO_manual_4x64graphite.xyz" ... done


--------------------------------------------------------------------------------
---------------------------------- INPUT FILE ----------------------------------
--------------------------------------------------------------------------------

task : singlepoint                                                              
do_properties : true                                                            
dx_format T                                                                     
edft T                                                                          
output_detail VERBOSE                                                           
write_xyz T                                                                     
xc_functional VDWDF                                                             
PSINC_SPACING 0.51121568 0.53128409 0.50705223                                  
paw T                                                                           
pdos_max_l = 2                                                                  
dos_smear  0.1 eV                                                               
popn_calculate T                                                                
PDOS_PSEUDOATOMIC T                                                             
PDOS_REDUCE_SWS F                                                               
PDOS_CONSTRUCT_BASIS F                                                          
PDOS_LOWDIN T                                                                   
PDOS_ORTH_ATOM_BLOCKS F                                                         
PDOS_LCAO_OPTIMIZE F                                                            
pdos_optados_output T                                                           
homo_plot 0                                                                     
lumo_plot 0                                                                     
homo_dens_plot -1                                                               
lumo_dens_plot -1                                                               
%BLOCK SPECIES                                                                  
C C 6 4 9.0                                                                     
%ENDBLOCK SPECIES                                                               
%BLOCK SPECIES_POT                                                              
C "~/pp/paw/c_pbe_abinit.paw"                                                   
%ENDBLOCK SPECIES_POT                                                           
%BLOCK SPECIES_ATOMIC_SET                                                       
C "SOLVE conf=2s2 2p2"                                                          
%ENDBLOCK SPECIES_ATOMIC_SET                                                    
%BLOCK LATTICE_CART                                                             
32.21  0.00  0.00                                                               
0.00 18.59  0.00                                                                
0.00  0.00 63.89                                                                
%ENDBLOCK LATTICE_CART                                                          
%BLOCK POSITIONS_ABS                                                            
C  0.00  0.00  3.19                                                             
C  0.00  0.00 15.97                                                             
C  0.00  0.00 28.75                                                             
C  0.00  0.00 41.53                                                             
C  0.00  0.00 54.31                                                             
C  0.00  4.65  3.19                                                             
C  0.00  4.65 15.97                                                             
C  0.00  4.65 28.75                                                             
C  0.00  4.65 41.53                                                             
C  0.00  4.65 54.31                                                             
C  4.03  2.32  3.19                                                             
C  4.03  2.32 15.97                                                             
C  4.03  2.32 28.75                                                             
C  4.03  2.32 41.53                                                             
C  4.03  2.32 54.31                                                             
C  8.05  0.00  3.19                                                             
C  8.05  0.00 15.97                                                             
C  8.05  0.00 28.75                                                             
C  8.05  0.00 41.53                                                             
C  8.05  0.00 54.31                                                             
C  0.00  9.30  3.19                                                             
C  0.00  9.30 15.97                                                             
C  0.00  9.30 28.75                                                             
C  0.00  9.30 41.53                                                             
C  0.00  9.30 54.31                                                             
C  4.03  6.97  3.19                                                             
C  4.03  6.97 15.97                                                             
C  4.03  6.97 28.75                                                             
C  4.03  6.97 41.53                                                             
C  4.03  6.97 54.31                                                             
C  8.05  4.65  3.19                                                             
C  8.05  4.65 15.97                                                             
C  8.05  4.65 28.75                                                             
C  8.05  4.65 41.53                                                             
C  8.05  4.65 54.31                                                             
C 12.08  2.32  3.19                                                             
C 12.08  2.32 15.97                                                             
C 12.08  2.32 28.75                                                             
C 12.08  2.32 41.53                                                             
C 12.08  2.32 54.31                                                             
C 16.10  0.00  3.19                                                             
C 16.10  0.00 15.97                                                             
C 16.10  0.00 28.75                                                             
C 16.10  0.00 41.53                                                             
C 16.10  0.00 54.31                                                             
C  0.00 13.95  3.19                                                             
C  0.00 13.95 15.97                                                             
C  0.00 13.95 28.75                                                             
C  0.00 13.95 41.53                                                             
C  0.00 13.95 54.31                                                             
C  4.03 11.62  3.19                                                             
C  4.03 11.62 15.97                                                             
C  4.03 11.62 28.75                                                             
C  4.03 11.62 41.53                                                             
C  4.03 11.62 54.31                                                             
C  8.05  9.30  3.19                                                             
C  8.05  9.30 15.97                                                             
C  8.05  9.30 28.75                                                             
C  8.05  9.30 41.53                                                             
C  8.05  9.30 54.31                                                             
C 12.08  6.97  3.19                                                             
C 12.08  6.97 15.97                                                             
C 12.08  6.97 28.75                                                             
C 12.08  6.97 41.53                                                             
C 12.08  6.97 54.31                                                             
C 16.10  4.65  3.19                                                             
C 16.10  4.65 15.97                                                             
C 16.10  4.65 28.75                                                             
C 16.10  4.65 41.53                                                             
C 16.10  4.65 54.31                                                             
C 20.13  2.32  3.19                                                             
C 20.13  2.32 15.97                                                             
C 20.13  2.32 28.75                                                             
C 20.13  2.32 41.53                                                             
C 20.13  2.32 54.31                                                             
C 24.16  0.00  3.19                                                             
C 24.16  0.00 15.97                                                             
C 24.16  0.00 28.75                                                             
C 24.16  0.00 41.53                                                             
C 24.16  0.00 54.31                                                             
C  4.03 16.27  3.19                                                             
C  4.03 16.27 15.97                                                             
C  4.03 16.27 28.75                                                             
C  4.03 16.27 41.53                                                             
C  4.03 16.27 54.31                                                             
C  8.05 13.95  3.19                                                             
C  8.05 13.95 15.97                                                             
C  8.05 13.95 28.75                                                             
C  8.05 13.95 41.53                                                             
C  8.05 13.95 54.31                                                             
C 12.08 11.62  3.19                                                             
C 12.08 11.62 15.97                                                             
C 12.08 11.62 28.75                                                             
C 12.08 11.62 41.53                                                             
C 12.08 11.62 54.31                                                             
C 16.10  9.30  3.19                                                             
C 16.10  9.30 15.97                                                             
C 16.10  9.30 28.75                                                             
C 16.10  9.30 41.53                                                             
C 16.10  9.30 54.31                                                             
C 20.13  6.97  3.19                                                             
C 20.13  6.97 15.97                                                             
C 20.13  6.97 28.75                                                             
C 20.13  6.97 41.53                                                             
C 20.13  6.97 54.31                                                             
C 24.16  4.65  3.19                                                             
C 24.16  4.65 15.97                                                             
C 24.16  4.65 28.75                                                             
C 24.16  4.65 41.53                                                             
C 24.16  4.65 54.31                                                             
C 28.18  2.32  3.19                                                             
C 28.18  2.32 15.97                                                             
C 28.18  2.32 28.75                                                             
C 28.18  2.32 41.53                                                             
C 28.18  2.32 54.31                                                             
C 12.08 16.27  3.19                                                             
C 12.08 16.27 15.97                                                             
C 12.08 16.27 28.75                                                             
C 12.08 16.27 41.53                                                             
C 12.08 16.27 54.31                                                             
C 16.10 13.95  3.19                                                             
C 16.10 13.95 15.97                                                             
C 16.10 13.95 28.75                                                             
C 16.10 13.95 41.53                                                             
C 16.10 13.95 54.31                                                             
C 20.13 11.62  3.19                                                             
C 20.13 11.62 15.97                                                             
C 20.13 11.62 28.75                                                             
C 20.13 11.62 41.53                                                             
C 20.13 11.62 54.31                                                             
C 24.16  9.30  3.19                                                             
C 24.16  9.30 15.97                                                             
C 24.16  9.30 28.75                                                             
C 24.16  9.30 41.53                                                             
C 24.16  9.30 54.31                                                             
C 28.18  6.97  3.19                                                             
C 28.18  6.97 15.97                                                             
C 28.18  6.97 28.75                                                             
C 28.18  6.97 41.53                                                             
C 28.18  6.97 54.31                                                             
C 20.13 16.27  3.19                                                             
C 20.13 16.27 15.97                                                             
C 20.13 16.27 28.75                                                             
C 20.13 16.27 41.53                                                             
C 20.13 16.27 54.31                                                             
C 24.16 13.95  3.19                                                             
C 24.16 13.95 15.97                                                             
C 24.16 13.95 28.75                                                             
C 24.16 13.95 41.53                                                             
C 24.16 13.95 54.31                                                             
C 28.18 11.62  3.19                                                             
C 28.18 11.62 15.97                                                             
C 28.18 11.62 28.75                                                             
C 28.18 11.62 41.53                                                             
C 28.18 11.62 54.31                                                             
C 28.18 16.27  3.19                                                             
C 28.18 16.27 15.97                                                             
C 28.18 16.27 28.75                                                             
C 28.18 16.27 41.53                                                             
C 28.18 16.27 54.31                                                             
C  0.00  0.00  9.58                                                             
C  0.00  0.00 22.36                                                             
C  0.00  0.00 35.14                                                             
C  0.00  0.00 47.92                                                             
C  0.00  0.00 60.69                                                             
C  0.00  4.65  9.58                                                             
C  0.00  4.65 22.36                                                             
C  0.00  4.65 35.14                                                             
C  0.00  4.65 47.92                                                             
C  0.00  4.65 60.69                                                             
C  4.03  2.32  9.58                                                             
C  4.03  2.32 22.36                                                             
C  4.03  2.32 35.14                                                             
C  4.03  2.32 47.92                                                             
C  4.03  2.32 60.69                                                             
C  8.05  0.00  9.58                                                             
C  8.05  0.00 22.36                                                             
C  8.05  0.00 35.14                                                             
C  8.05  0.00 47.92                                                             
C  8.05  0.00 60.69                                                             
C  0.00  9.30  9.58                                                             
C  0.00  9.30 22.36                                                             
C  0.00  9.30 35.14                                                             
C  0.00  9.30 47.92                                                             
C  0.00  9.30 60.69                                                             
C  4.03  6.97  9.58                                                             
C  4.03  6.97 22.36                                                             
C  4.03  6.97 35.14                                                             
C  4.03  6.97 47.92                                                             
C  4.03  6.97 60.69                                                             
C  8.05  4.65  9.58                                                             
C  8.05  4.65 22.36                                                             
C  8.05  4.65 35.14                                                             
C  8.05  4.65 47.92                                                             
C  8.05  4.65 60.69                                                             
C 12.08  2.32  9.58                                                             
C 12.08  2.32 22.36                                                             
C 12.08  2.32 35.14                                                             
C 12.08  2.32 47.92                                                             
C 12.08  2.32 60.69                                                             
C 16.10  0.00  9.58                                                             
C 16.10  0.00 22.36                                                             
C 16.10  0.00 35.14                                                             
C 16.10  0.00 47.92                                                             
C 16.10  0.00 60.69                                                             
C  0.00 13.95  9.58                                                             
C  0.00 13.95 22.36                                                             
C  0.00 13.95 35.14                                                             
C  0.00 13.95 47.92                                                             
C  0.00 13.95 60.69                                                             
C  4.03 11.62  9.58                                                             
C  4.03 11.62 22.36                                                             
C  4.03 11.62 35.14                                                             
C  4.03 11.62 47.92                                                             
C  4.03 11.62 60.69                                                             
C  8.05  9.30  9.58                                                             
C  8.05  9.30 22.36                                                             
C  8.05  9.30 35.14                                                             
C  8.05  9.30 47.92                                                             
C  8.05  9.30 60.69                                                             
C 12.08  6.97  9.58                                                             
C 12.08  6.97 22.36                                                             
C 12.08  6.97 35.14                                                             
C 12.08  6.97 47.92                                                             
C 12.08  6.97 60.69                                                             
C 16.10  4.65  9.58                                                             
C 16.10  4.65 22.36                                                             
C 16.10  4.65 35.14                                                             
C 16.10  4.65 47.92                                                             
C 16.10  4.65 60.69                                                             
C 20.13  2.32  9.58                                                             
C 20.13  2.32 22.36                                                             
C 20.13  2.32 35.14                                                             
C 20.13  2.32 47.92                                                             
C 20.13  2.32 60.69                                                             
C 24.16  0.00  9.58                                                             
C 24.16  0.00 22.36                                                             
C 24.16  0.00 35.14                                                             
C 24.16  0.00 47.92                                                             
C 24.16  0.00 60.69                                                             
C  4.03 16.27  9.58                                                             
C  4.03 16.27 22.36                                                             
C  4.03 16.27 35.14                                                             
C  4.03 16.27 47.92                                                             
C  4.03 16.27 60.69                                                             
C  8.05 13.95  9.58                                                             
C  8.05 13.95 22.36                                                             
C  8.05 13.95 35.14                                                             
C  8.05 13.95 47.92                                                             
C  8.05 13.95 60.69                                                             
C 12.08 11.62  9.58                                                             
C 12.08 11.62 22.36                                                             
C 12.08 11.62 35.14                                                             
C 12.08 11.62 47.92                                                             
C 12.08 11.62 60.69                                                             
C 16.10  9.30  9.58                                                             
C 16.10  9.30 22.36                                                             
C 16.10  9.30 35.14                                                             
C 16.10  9.30 47.92                                                             
C 16.10  9.30 60.69                                                             
C 20.13  6.97  9.58                                                             
C 20.13  6.97 22.36                                                             
C 20.13  6.97 35.14                                                             
C 20.13  6.97 47.92                                                             
C 20.13  6.97 60.69                                                             
C 24.16  4.65  9.58                                                             
C 24.16  4.65 22.36                                                             
C 24.16  4.65 35.14                                                             
C 24.16  4.65 47.92                                                             
C 24.16  4.65 60.69                                                             
C 28.18  2.32  9.58                                                             
C 28.18  2.32 22.36                                                             
C 28.18  2.32 35.14                                                             
C 28.18  2.32 47.92                                                             
C 28.18  2.32 60.69                                                             
C 12.08 16.27  9.58                                                             
C 12.08 16.27 22.36                                                             
C 12.08 16.27 35.14                                                             
C 12.08 16.27 47.92                                                             
C 12.08 16.27 60.69                                                             
C 16.10 13.95  9.58                                                             
C 16.10 13.95 22.36                                                             
C 16.10 13.95 35.14                                                             
C 16.10 13.95 47.92                                                             
C 16.10 13.95 60.69                                                             
C 20.13 11.62  9.58                                                             
C 20.13 11.62 22.36                                                             
C 20.13 11.62 35.14                                                             
C 20.13 11.62 47.92                                                             
C 20.13 11.62 60.69                                                             
C 24.16  9.30  9.58                                                             
C 24.16  9.30 22.36                                                             
C 24.16  9.30 35.14                                                             
C 24.16  9.30 47.92                                                             
C 24.16  9.30 60.69                                                             
C 28.18  6.97  9.58                                                             
C 28.18  6.97 22.36                                                             
C 28.18  6.97 35.14                                                             
C 28.18  6.97 47.92                                                             
C 28.18  6.97 60.69                                                             
C 20.13 16.27  9.58                                                             
C 20.13 16.27 22.36                                                             
C 20.13 16.27 35.14                                                             
C 20.13 16.27 47.92                                                             
C 20.13 16.27 60.69                                                             
C 24.16 13.95  9.58                                                             
C 24.16 13.95 22.36                                                             
C 24.16 13.95 35.14                                                             
C 24.16 13.95 47.92                                                             
C 24.16 13.95 60.69                                                             
C 28.18 11.62  9.58                                                             
C 28.18 11.62 22.36                                                             
C 28.18 11.62 35.14                                                             
C 28.18 11.62 47.92                                                             
C 28.18 11.62 60.69                                                             
C 28.18 16.27  9.58                                                             
C 28.18 16.27 22.36                                                             
C 28.18 16.27 35.14                                                             
C 28.18 16.27 47.92                                                             
C 28.18 16.27 60.69                                                             
C  1.34  2.32  3.19                                                             
C  1.34  2.32 15.97                                                             
C  1.34  2.32 28.75                                                             
C  1.34  2.32 41.53                                                             
C  1.34  2.32 54.31                                                             
C  5.37  0.00  3.19                                                             
C  5.37  0.00 15.97                                                             
C  5.37  0.00 28.75                                                             
C  5.37  0.00 41.53                                                             
C  5.37  0.00 54.31                                                             
C  1.34  6.97  3.19                                                             
C  1.34  6.97 15.97                                                             
C  1.34  6.97 28.75                                                             
C  1.34  6.97 41.53                                                             
C  1.34  6.97 54.31                                                             
C  5.37  4.65  3.19                                                             
C  5.37  4.65 15.97                                                             
C  5.37  4.65 28.75                                                             
C  5.37  4.65 41.53                                                             
C  5.37  4.65 54.31                                                             
C  9.39  2.32  3.19                                                             
C  9.39  2.32 15.97                                                             
C  9.39  2.32 28.75                                                             
C  9.39  2.32 41.53                                                             
C  9.39  2.32 54.31                                                             
C 13.42  0.00  3.19                                                             
C 13.42  0.00 15.97                                                             
C 13.42  0.00 28.75                                                             
C 13.42  0.00 41.53                                                             
C 13.42  0.00 54.31                                                             
C  1.34 11.62  3.19                                                             
C  1.34 11.62 15.97                                                             
C  1.34 11.62 28.75                                                             
C  1.34 11.62 41.53                                                             
C  1.34 11.62 54.31                                                             
C  5.37  9.30  3.19                                                             
C  5.37  9.30 15.97                                                             
C  5.37  9.30 28.75                                                             
C  5.37  9.30 41.53                                                             
C  5.37  9.30 54.31                                                             
C  9.39  6.97  3.19                                                             
C  9.39  6.97 15.97                                                             
C  9.39  6.97 28.75                                                             
C  9.39  6.97 41.53                                                             
C  9.39  6.97 54.31                                                             
C 13.42  4.65  3.19                                                             
C 13.42  4.65 15.97                                                             
C 13.42  4.65 28.75                                                             
C 13.42  4.65 41.53                                                             
C 13.42  4.65 54.31                                                             
C 17.45  2.32  3.19                                                             
C 17.45  2.32 15.97                                                             
C 17.45  2.32 28.75                                                             
C 17.45  2.32 41.53                                                             
C 17.45  2.32 54.31                                                             
C 21.47  0.00  3.19                                                             
C 21.47  0.00 15.97                                                             
C 21.47  0.00 28.75                                                             
C 21.47  0.00 41.53                                                             
C 21.47  0.00 54.31                                                             
C  1.34 16.27  3.19                                                             
C  1.34 16.27 15.97                                                             
C  1.34 16.27 28.75                                                             
C  1.34 16.27 41.53                                                             
C  1.34 16.27 54.31                                                             
C  5.37 13.95  3.19                                                             
C  5.37 13.95 15.97                                                             
C  5.37 13.95 28.75                                                             
C  5.37 13.95 41.53                                                             
C  5.37 13.95 54.31                                                             
C  9.39 11.62  3.19                                                             
C  9.39 11.62 15.97                                                             
C  9.39 11.62 28.75                                                             
C  9.39 11.62 41.53                                                             
C  9.39 11.62 54.31                                                             
C 13.42  9.30  3.19                                                             
C 13.42  9.30 15.97                                                             
C 13.42  9.30 28.75                                                             
C 13.42  9.30 41.53                                                             
C 13.42  9.30 54.31                                                             
C 17.45  6.97  3.19                                                             
C 17.45  6.97 15.97                                                             
C 17.45  6.97 28.75                                                             
C 17.45  6.97 41.53                                                             
C 17.45  6.97 54.31                                                             
C 21.47  4.65  3.19                                                             
C 21.47  4.65 15.97                                                             
C 21.47  4.65 28.75                                                             
C 21.47  4.65 41.53                                                             
C 21.47  4.65 54.31                                                             
C 25.50  2.32  3.19                                                             
C 25.50  2.32 15.97                                                             
C 25.50  2.32 28.75                                                             
C 25.50  2.32 41.53                                                             
C 25.50  2.32 54.31                                                             
C 29.52  0.00  3.19                                                             
C 29.52  0.00 15.97                                                             
C 29.52  0.00 28.75                                                             
C 29.52  0.00 41.53                                                             
C 29.52  0.00 54.31                                                             
C  9.39 16.27  3.19                                                             
C  9.39 16.27 15.97                                                             
C  9.39 16.27 28.75                                                             
C  9.39 16.27 41.53                                                             
C  9.39 16.27 54.31                                                             
C 13.42 13.95  3.19                                                             
C 13.42 13.95 15.97                                                             
C 13.42 13.95 28.75                                                             
C 13.42 13.95 41.53                                                             
C 13.42 13.95 54.31                                                             
C 17.45 11.62  3.19                                                             
C 17.45 11.62 15.97                                                             
C 17.45 11.62 28.75                                                             
C 17.45 11.62 41.53                                                             
C 17.45 11.62 54.31                                                             
C 21.47  9.30  3.19                                                             
C 21.47  9.30 15.97                                                             
C 21.47  9.30 28.75                                                             
C 21.47  9.30 41.53                                                             
C 21.47  9.30 54.31                                                             
C 25.50  6.97  3.19                                                             
C 25.50  6.97 15.97                                                             
C 25.50  6.97 28.75                                                             
C 25.50  6.97 41.53                                                             
C 25.50  6.97 54.31                                                             
C 29.52  4.65  3.19                                                             
C 29.52  4.65 15.97                                                             
C 29.52  4.65 28.75                                                             
C 29.52  4.65 41.53                                                             
C 29.52  4.65 54.31                                                             
C 17.45 16.27  3.19                                                             
C 17.45 16.27 15.97                                                             
C 17.45 16.27 28.75                                                             
C 17.45 16.27 41.53                                                             
C 17.45 16.27 54.31                                                             
C 21.47 13.95  3.19                                                             
C 21.47 13.95 15.97                                                             
C 21.47 13.95 28.75                                                             
C 21.47 13.95 41.53                                                             
C 21.47 13.95 54.31                                                             
C 25.50 11.62  3.19                                                             
C 25.50 11.62 15.97                                                             
C 25.50 11.62 28.75                                                             
C 25.50 11.62 41.53                                                             
C 25.50 11.62 54.31                                                             
C 29.52  9.30  3.19                                                             
C 29.52  9.30 15.97                                                             
C 29.52  9.30 28.75                                                             
C 29.52  9.30 41.53                                                             
C 29.52  9.30 54.31                                                             
C 25.50 16.27  3.19                                                             
C 25.50 16.27 15.97                                                             
C 25.50 16.27 28.75                                                             
C 25.50 16.27 41.53                                                             
C 25.50 16.27 54.31                                                             
C 29.52 13.95  3.19                                                             
C 29.52 13.95 15.97                                                             
C 29.52 13.95 28.75                                                             
C 29.52 13.95 41.53                                                             
C 29.52 13.95 54.31                                                             
C  2.68  0.00  9.58                                                             
C  2.68  0.00 22.36                                                             
C  2.68  0.00 35.14                                                             
C  2.68  0.00 47.92                                                             
C  2.68  0.00 60.69                                                             
C  2.68  4.65  9.58                                                             
C  2.68  4.65 22.36                                                             
C  2.68  4.65 35.14                                                             
C  2.68  4.65 47.92                                                             
C  2.68  4.65 60.69                                                             
C  6.71  2.32  9.58                                                             
C  6.71  2.32 22.36                                                             
C  6.71  2.32 35.14                                                             
C  6.71  2.32 47.92                                                             
C  6.71  2.32 60.69                                                             
C 10.74  0.00  9.58                                                             
C 10.74  0.00 22.36                                                             
C 10.74  0.00 35.14                                                             
C 10.74  0.00 47.92                                                             
C 10.74  0.00 60.69                                                             
C  2.68  9.30  9.58                                                             
C  2.68  9.30 22.36                                                             
C  2.68  9.30 35.14                                                             
C  2.68  9.30 47.92                                                             
C  2.68  9.30 60.69                                                             
C  6.71  6.97  9.58                                                             
C  6.71  6.97 22.36                                                             
C  6.71  6.97 35.14                                                             
C  6.71  6.97 47.92                                                             
C  6.71  6.97 60.69                                                             
C 10.74  4.65  9.58                                                             
C 10.74  4.65 22.36                                                             
C 10.74  4.65 35.14                                                             
C 10.74  4.65 47.92                                                             
C 10.74  4.65 60.69                                                             
C 14.76  2.32  9.58                                                             
C 14.76  2.32 22.36                                                             
C 14.76  2.32 35.14                                                             
C 14.76  2.32 47.92                                                             
C 14.76  2.32 60.69                                                             
C 18.79  0.00  9.58                                                             
C 18.79  0.00 22.36                                                             
C 18.79  0.00 35.14                                                             
C 18.79  0.00 47.92                                                             
C 18.79  0.00 60.69                                                             
C  2.68 13.95  9.58                                                             
C  2.68 13.95 22.36                                                             
C  2.68 13.95 35.14                                                             
C  2.68 13.95 47.92                                                             
C  2.68 13.95 60.69                                                             
C  6.71 11.62  9.58                                                             
C  6.71 11.62 22.36                                                             
C  6.71 11.62 35.14                                                             
C  6.71 11.62 47.92                                                             
C  6.71 11.62 60.69                                                             
C 10.74  9.30  9.58                                                             
C 10.74  9.30 22.36                                                             
C 10.74  9.30 35.14                                                             
C 10.74  9.30 47.92                                                             
C 10.74  9.30 60.69                                                             
C 14.76  6.97  9.58                                                             
C 14.76  6.97 22.36                                                             
C 14.76  6.97 35.14                                                             
C 14.76  6.97 47.92                                                             
C 14.76  6.97 60.69                                                             
C 18.79  4.65  9.58                                                             
C 18.79  4.65 22.36                                                             
C 18.79  4.65 35.14                                                             
C 18.79  4.65 47.92                                                             
C 18.79  4.65 60.69                                                             
C 22.81  2.32  9.58                                                             
C 22.81  2.32 22.36                                                             
C 22.81  2.32 35.14                                                             
C 22.81  2.32 47.92                                                             
C 22.81  2.32 60.69                                                             
C 26.84  0.00  9.58                                                             
C 26.84  0.00 22.36                                                             
C 26.84  0.00 35.14                                                             
C 26.84  0.00 47.92                                                             
C 26.84  0.00 60.69                                                             
C  6.71 16.27  9.58                                                             
C  6.71 16.27 22.36                                                             
C  6.71 16.27 35.14                                                             
C  6.71 16.27 47.92                                                             
C  6.71 16.27 60.69                                                             
C 10.74 13.95  9.58                                                             
C 10.74 13.95 22.36                                                             
C 10.74 13.95 35.14                                                             
C 10.74 13.95 47.92                                                             
C 10.74 13.95 60.69                                                             
C 14.76 11.62  9.58                                                             
C 14.76 11.62 22.36                                                             
C 14.76 11.62 35.14                                                             
C 14.76 11.62 47.92                                                             
C 14.76 11.62 60.69                                                             
C 18.79  9.30  9.58                                                             
C 18.79  9.30 22.36                                                             
C 18.79  9.30 35.14                                                             
C 18.79  9.30 47.92                                                             
C 18.79  9.30 60.69                                                             
C 22.81  6.97  9.58                                                             
C 22.81  6.97 22.36                                                             
C 22.81  6.97 35.14                                                             
C 22.81  6.97 47.92                                                             
C 22.81  6.97 60.69                                                             
C 26.84  4.65  9.58                                                             
C 26.84  4.65 22.36                                                             
C 26.84  4.65 35.14                                                             
C 26.84  4.65 47.92                                                             
C 26.84  4.65 60.69                                                             
C 30.86  2.32  9.58                                                             
C 30.86  2.32 22.36                                                             
C 30.86  2.32 35.14                                                             
C 30.86  2.32 47.92                                                             
C 30.86  2.32 60.69                                                             
C 14.76 16.27  9.58                                                             
C 14.76 16.27 22.36                                                             
C 14.76 16.27 35.14                                                             
C 14.76 16.27 47.92                                                             
C 14.76 16.27 60.69                                                             
C 18.79 13.95  9.58                                                             
C 18.79 13.95 22.36                                                             
C 18.79 13.95 35.14                                                             
C 18.79 13.95 47.92                                                             
C 18.79 13.95 60.69                                                             
C 22.81 11.62  9.58                                                             
C 22.81 11.62 22.36                                                             
C 22.81 11.62 35.14                                                             
C 22.81 11.62 47.92                                                             
C 22.81 11.62 60.69                                                             
C 26.84  9.30  9.58                                                             
C 26.84  9.30 22.36                                                             
C 26.84  9.30 35.14                                                             
C 26.84  9.30 47.92                                                             
C 26.84  9.30 60.69                                                             
C 30.86  6.97  9.58                                                             
C 30.86  6.97 22.36                                                             
C 30.86  6.97 35.14                                                             
C 30.86  6.97 47.92                                                             
C 30.86  6.97 60.69                                                             
C 22.81 16.27  9.58                                                             
C 22.81 16.27 22.36                                                             
C 22.81 16.27 35.14                                                             
C 22.81 16.27 47.92                                                             
C 22.81 16.27 60.69                                                             
C 26.84 13.95  9.58                                                             
C 26.84 13.95 22.36                                                             
C 26.84 13.95 35.14                                                             
C 26.84 13.95 47.92                                                             
C 26.84 13.95 60.69                                                             
C 30.86 11.62  9.58                                                             
C 30.86 11.62 22.36                                                             
C 30.86 11.62 35.14                                                             
C 30.86 11.62 47.92                                                             
C 30.86 11.62 60.69                                                             
C 30.86 16.27  9.58                                                             
C 30.86 16.27 22.36                                                             
C 30.86 16.27 35.14                                                             
C 30.86 16.27 47.92                                                             
C 30.86 16.27 60.69                                                             
%ENDBLOCK POSITIONS_ABS                                                         

--------------------------------------------------------------------------------
-------------------------------- END INPUT FILE --------------------------------
--------------------------------------------------------------------------------


 
<<<<<<<<<<<<<<<<<<<<<<<<<<<<<<<<< Full system >>>>>>>>>>>>>>>>>>>>>>>>>>>>>>>>>>
<<<<<<<<<<<<<<<<<<<<<<<<<<< PAW Dataset information >>>>>>>>>>>>>>>>>>>>>>>>>>>
File: ~/pp/paw/c_pbe_abinit.paw; rc = 1.25 bohr; shape type =  3; rshape = 1.25 bohr;
  Atomic number:  6;  ionic charge:  4.000000
    Partial Wave 1: l = 0
    Partial Wave 2: l = 0
    Partial Wave 3: l = 1
    Partial Wave 4: l = 1
  Core charge supplied for Nonlinear Core Corrections
<<<<<<<<<<<<<<<<<<<<<<<<<<<<<<<<<<<<<<< >>>>>>>>>>>>>>>>>>>>>>>>>>>>>>>>>>>>>>>

-------------------------- Atom counting information ---------------------------
Symbol    Natoms    Nngwfs    Nprojs
  C        640      2560      5120
.......   ......    ......    ......
Totals:    640      2560      5120
--------------------------------------------------------------------------------

=============================== PSINC grid sizes ===============================
                      Simulation cell:   63 x  35 x 126
                              FFT-box:   63 x  35 x 117
                                  PPD:    7 x   5 x   1
Grid space d1=  0.511269841270a0 (KE cutoff=  29.06054Eh = 790.77748eV)
Grid space d2=  0.531142857143a0 (KE cutoff=  26.92659Eh = 732.70972eV)
Grid space d3=  0.507063492063a0 (KE cutoff=  29.54468Eh = 803.95170eV)
================================================================================
  
WARNING in cell_grid_distribute:
Average of less than one 23-slab per node, so workload cannot be
equally balanced between nodes.

********************* Fourier parallelisation information **********************
       Coarse grid (whole simulation cell) dimensions:     63    35   126
          Real-space ('12') slabs/node (min max mean):      3     4     3
         Recip-space ('23') slabs/node (min max mean):      0     1     0
********************************************************************************

********************* Fourier parallelisation information **********************
       Double grid (whole simulation cell) dimensions:    126    70   252
          Real-space ('12') slabs/node (min max mean):      6     7     6
         Recip-space ('23') slabs/node (min max mean):      1     2     1
********************************************************************************

Atom SCF Calculation for C  : Z (AE atom) =   6 : Z (PS atom) =   4
Config String: 2s2 2p2
Orbitals (num,occ):  2     2.00 2.00
Orbitals   (num,l):  2        0    1
Real-space Grid (nr,dr,rmax): 1293    0.0069659443    9.0000000000
Spherical Bessel Basis (nsws,lmax,cutoff):   37    2  161.4736382572
Confining potential (l,width,scale):  0    3.0000000000  100.0000000000
Confining potential (l,width,scale):  1    3.0000000000  100.0000000000
  1         -5.4966243538   -1.3415066196    4.5135257941   -1.6613421942
  2         -5.4660395227   -1.4172174419    4.4326892861   -1.6365362708
  3         -5.4759582348   -1.4337557188    4.4144498970   -1.6324663609
  4         -5.4843804720   -1.4365219414    4.4114201180   -1.6322033818
  5         -5.4882713954   -1.4381734139    4.4096331461   -1.6320227940
  6         -5.4902132675   -1.4390636620    4.4086785626   -1.6319270645
  7         -5.4912093711   -1.4395303631    4.4081823351   -1.6318789226
  8         -5.4917264140   -1.4397726342    4.4079268833   -1.6318551036
  9         -5.4919964206   -1.4398979410    4.4077958777   -1.6318434025
 10         -5.4921379132   -1.4399626875    4.4077287721   -1.6318376788
 11         -5.4922122245   -1.4399961532    4.4076943935   -1.6318348878
 12         -5.4922513136   -1.4400134684    4.4076767658   -1.6318335308
 13         -5.4922719001   -1.4400224400    4.4076677156   -1.6318328728
 14         -5.4922827535   -1.4400270959    4.4076630621   -1.6318325547
 15         -5.4922884809   -1.4400295164    4.4076606653   -1.6318324014
 16         -5.4922915059   -1.4400307770    4.4076594286   -1.6318323279
 17         -5.4922931051   -1.4400314347    4.4076587894   -1.6318322927
 18         -5.4922939512   -1.4400317785    4.4076584583   -1.6318322760
 19         -5.4922943993   -1.4400319585    4.4076582865   -1.6318322681
 20         -5.4922946368   -1.4400320529    4.4076581972   -1.6318322644
 21         -5.4922947627   -1.4400321025    4.4076581507   -1.6318322627
 22         -5.4922948296   -1.4400321287    4.4076581265   -1.6318322619
Atom SCF converged after  22 iterations to a total energy of     -5.49229483

Determining parallel strategy ...
... using space-filling curve
... NGWF load balancing: max     64;  min     64;  average     64
... Projector load balancing: max    128;  min    128;  average    128
... done
Calculating Ewald energy ...
              Ewald: real-space energy =    9498.235686
        Ewald: reciprocal-space energy =       0.096780
         Ewald: (sum_charge)**2 Energy =   11284.672060
         Ewald: (sum_charge**2) Energy =     892.131659
                          Ewald Energy =   -2678.471254
Basis initialisation ...... NGWF spheres initialised
... Projector spheres initialised
... NGWF tight boxes initialised
... Projector tight boxes initialised
... Tight-boxes gathered
... NGWF basis size (local,global):     693332  27907072
... PAW projector initialisation
... done

============================= Charge Augmentation ==============================
                           Aug box size:   11 x  11 x  11
================================================================================

========================== Sparse matrix information ===========================
                        Overlap matrix filling:  44.38%
                        Density kernel filling: 100.00%
              NGWF-Proj overlap matrix filling:  12.19%
                    Aug Overlap matrix filling:  47.03%
                    Hamiltonian matrix filling:  47.03%
                  NGWF diagonal matrix filling:   0.16%
                             KS matrix filling: 100.00% 
                           KSKS matrix filling: 100.00% 
================================================================================

Sparse matrix initialisation ... done
NGWF initialisation ...... done
============ Calculation of NGWF S^-1 using Hotelling algorithm ================ 
         Iteration  |  Frobenius norm and Maximum abs value    (of I-S*S_n^-1)   
               1       0.49134166E+02     0.97688846E+00
               2       0.47957222E+02     0.95562107E+00
               3       0.46176867E+02     0.91763569E+00
               4       0.43846962E+02     0.85504654E+00
               5       0.41039712E+02     0.76198600E+00
               6       0.37738308E+02     0.68433578E+00
               7       0.34233335E+02     0.63506576E+00
               8       0.30874557E+02     0.59371563E+00
               9       0.27346551E+02     0.55024240E+00
              10       0.22931013E+02     0.48353789E+00
              11       0.17159250E+02     0.37691132E+00
              12       0.10394644E+02     0.23384505E+00
              13       0.43398488E+01     0.95614053E-01
              14       0.90698489E+00     0.18280777E-01
              15       0.48006484E-01     0.82556605E-03
              16       0.17692863E-03     0.22273566E-05
              17       0.36571974E-08     0.27739810E-10
              18       0.78772981E-13     0.44408921E-14
================================================================================
Calculating core density ...
================================= Core Density =================================
               Core den box size:   21 x  21 x  21
================================================================================
 ... done
Up spin density kernel initialisation ...... done

Writing density kernel to file "3.3808312_GO_manual_4x64graphite.dkn" ... done

>>> Optimising kernel for current NGWFs:

--------------------------- Ensemble-DFT optimisation --------------------------
Running ScaLAPACK on   40 processor(s).

--------------------------------------------------------------------------------
  Iter                              Commutator    Free_energy(A=E-TS)     DeltaA
#    0                          0.000040108680   -3656.04790235625660  -3.66E+03

Step                       =       0.381966011250
Energy                     =   -3656.047869638931
Entropy (-TS)              =      -0.000032717373
Free energy (A=E-TS)       =   -3656.047902356257
Est. 0K Energy 0.5*(E+A)   =   -3656.047885997594
Residual Non-orthogonality =       0.000000000000
Residual N_electrons       =       0.000000000048

Spin          Integrated_Ne            Fermi_level     Delta_Fermi_level
   1      2559.999999999769         0.208991237232              2.09E-01

                           Spin 1          
     Orb      H-eigenvalues     Occupancies
       1 |    -0.5161832680    1.0000000000 | 
                          ------
    1276 |     0.1751987310    0.9999767883 | 
    1277 |     0.1758135195    0.9999718151 | 
    1278 |     0.1758218479    0.9999717409 | 
    1279 |     0.1762703244    0.9999674418 | 
    1280 |     0.1768879578    0.9999604306 | 
                 - Gap at zero temperature -
    1281 |     0.2436902394    0.0000174339 | 
    1282 |     0.2437129651    0.0000173092 | 
    1283 |     0.2437561322    0.0000170749 | 
    1284 |     0.2439199780    0.0000162139 | 
    1285 |     0.2439426782    0.0000160981 | 
                          ------
    2560 |     1.0430908502    0.0000000000 | 

                       |  Abs_value |  Threshold | Converged
     Delta_Free_energy |   3.66E+03 |   1.00E-06 |        No
     Delta_Energy      |   3.66E+03 |   1.00E-04 |        No
     Delta_Entropy     |   3.27E-05 |   1.00E-04 |       Yes
     Commutator        |   4.01E-05 |   1.00E-05 |        No
     Delta_Fermi_level |   2.09E-01 |   1.00E-03 |        No

  Line search of the free energy minimum:
  Step_type        Step             Free_energy   Predicted_free_energy
.   Initial    0.000000    -3656.04790235625660
.    Trial1    0.381966    -3656.04954106416972
.    Trial2    0.618034    -3656.04967313105317
. Quadratic    0.546339    -3656.04970369653529    -3656.04970415990374

--------------------------------------------------------------------------------
  Iter                              Commutator    Free_energy(A=E-TS)     DeltaA
#    1                          0.000021996048   -3656.04970369653529  -1.80E-03

Step                       =       0.546338632775
Energy                     =   -3656.049672084753
Entropy (-TS)              =      -0.000031612061
Free energy (A=E-TS)       =   -3656.049703696535
Est. 0K Energy 0.5*(E+A)   =   -3656.049687890644
Residual Non-orthogonality =       0.000000000000
Residual N_electrons       =       0.000000000279

Spin          Integrated_Ne            Fermi_level     Delta_Fermi_level
   1      2559.999999998678         0.210655470722              1.66E-03

                           Spin 1          
     Orb      H-eigenvalues     Occupancies
       1 |    -0.5159528756    1.0000000000 | 
                          ------
    1276 |     0.1768375997    0.9999769734 | 
    1277 |     0.1772932745    0.9999734100 | 
    1278 |     0.1773153408    0.9999732241 | 
    1279 |     0.1779195699    0.9999675955 | 
    1280 |     0.1783919001    0.9999623835 | 
                 - Gap at zero temperature -
    1281 |     0.2454170124    0.0000170930 | 
    1282 |     0.2454610134    0.0000168571 | 
    1283 |     0.2455120208    0.0000165878 | 
    1284 |     0.2457062901    0.0000156008 | 
    1285 |     0.2457221186    0.0000155230 | 
                          ------
    2560 |     1.0455641312    0.0000000000 | 

                       |  Abs_value |  Threshold | Converged
     Delta_Free_energy |   1.80E-03 |   1.00E-06 |        No
     Delta_Energy      |   1.80E-03 |   1.00E-04 |        No
     Delta_Entropy     |   1.11E-06 |   1.00E-04 |       Yes
     Commutator        |   2.20E-05 |   1.00E-05 |        No
     Delta_Fermi_level |   1.66E-03 |   1.00E-03 |        No

  Line search of the free energy minimum:
  Step_type        Step             Free_energy   Predicted_free_energy
.   Initial    0.000000    -3656.04970369653529
.    Trial1    0.546339    -3656.04965607801887
.    Trial2    0.208683    -3656.05010176781161
. Quadratic    0.265792    -3656.05012084839063    -3656.05012103510580

--------------------------------------------------------------------------------
  Iter                              Commutator    Free_energy(A=E-TS)     DeltaA
#    2                          0.000012960631   -3656.05012084839063  -4.17E-04

Step                       =       0.265792308502
Energy                     =   -3656.050089527771
Entropy (-TS)              =      -0.000031320540
Free energy (A=E-TS)       =   -3656.050120848391
Est. 0K Energy 0.5*(E+A)   =   -3656.050105188081
Residual Non-orthogonality =       0.000000000000
Residual N_electrons       =      -0.000000000080

Spin          Integrated_Ne            Fermi_level     Delta_Fermi_level
   1      2560.000000000378         0.211007095205              3.52E-04

                           Spin 1          
     Orb      H-eigenvalues     Occupancies
       1 |    -0.5159047262    1.0000000000 | 
                          ------
    1276 |     0.1771324719    0.9999773824 | 
    1277 |     0.1776348191    0.9999734945 | 
    1278 |     0.1776568682    0.9999733093 | 
    1279 |     0.1782122171    0.9999681934 | 
    1280 |     0.1787311031    0.9999625308 | 
                 - Gap at zero temperature -
    1281 |     0.2458111885    0.0000168648 | 
    1282 |     0.2458551720    0.0000166322 | 
    1283 |     0.2459038432    0.0000163785 | 
    1284 |     0.2461084486    0.0000153538 | 
    1285 |     0.2461258026    0.0000152699 | 
                          ------
    2560 |     1.0460976969    0.0000000000 | 

                       |  Abs_value |  Threshold | Converged
     Delta_Free_energy |   4.17E-04 |   1.00E-06 |        No
     Delta_Energy      |   4.17E-04 |   1.00E-04 |        No
     Delta_Entropy     |   2.92E-07 |   1.00E-04 |       Yes
     Commutator        |   1.30E-05 |   1.00E-05 |        No
     Delta_Fermi_level |   3.52E-04 |   1.00E-03 |       Yes

  Line search of the free energy minimum:
  Step_type        Step             Free_energy   Predicted_free_energy
.   Initial    0.000000    -3656.05012084839063
.    Trial1    0.265792    -3656.05025751556695
.    Trial2    0.546235    -3656.05020506283290
. Quadratic    0.333166    -3656.05026331153340    -3656.05026334266358

--------------------------------------------------------------------------------
  Iter                              Commutator    Free_energy(A=E-TS)     DeltaA
#    3                          0.000009089934   -3656.05026331153340  -1.42E-04

Step                       =       0.333165559819
Energy                     =   -3656.050232248631
Entropy (-TS)              =      -0.000031063255
Free energy (A=E-TS)       =   -3656.050263311533
Est. 0K Energy 0.5*(E+A)   =   -3656.050247780082
Residual Non-orthogonality =       0.000000000000
Residual N_electrons       =       0.000000000353

Spin          Integrated_Ne            Fermi_level     Delta_Fermi_level
   1      2559.999999998330         0.211333159616              3.26E-04

                           Spin 1          
     Orb      H-eigenvalues     Occupancies
       1 |    -0.5158526383    1.0000000000 | 
                          ------
    1276 |     0.1774231129    0.9999776340 | 
    1277 |     0.1779397377    0.9999736709 | 
    1278 |     0.1779615992    0.9999734885 | 
    1279 |     0.1785028808    0.9999685469 | 
    1280 |     0.1790358242    0.9999627824 | 
                 - Gap at zero temperature -
    1281 |     0.2461675072    0.0000167045 | 
    1282 |     0.2462111550    0.0000164758 | 
    1283 |     0.2462592379    0.0000162276 | 
    1284 |     0.2464667051    0.0000151985 | 
    1285 |     0.2464799582    0.0000151351 | 
                          ------
    2560 |     1.0466063326    0.0000000000 | 

                       |  Abs_value |  Threshold | Converged
     Delta_Free_energy |   1.42E-04 |   1.00E-06 |        No
     Delta_Energy      |   1.43E-04 |   1.00E-04 |        No
     Delta_Entropy     |   2.57E-07 |   1.00E-04 |       Yes
     Commutator        |   9.09E-06 |   1.00E-05 |       Yes
     Delta_Fermi_level |   3.26E-04 |   1.00E-03 |       Yes

  Line search of the free energy minimum:
  Step_type        Step             Free_energy   Predicted_free_energy
.   Initial    0.000000    -3656.05026331153340
.    Trial1    0.333166    -3656.05032397317336
.    Trial2    0.587874    -3656.05023217068356
. Quadratic    0.265236    -3656.05032824981845    -3656.05032823149622

--------------------------------------------------------------------------------
  Iter                              Commutator    Free_energy(A=E-TS)     DeltaA
#    4                          0.000006234146   -3656.05032824981845  -6.49E-05

Step                       =       0.265235524139
Energy                     =   -3656.050297319036
[...]
 C   275 -- C   555       -0.10      5.37000
 C   274 -- C   554       -0.10      5.37000
 C   273 -- C   553       -0.10      5.37000
 C   272 -- C   552       -0.10      5.37000
 C   271 -- C   551       -0.10      5.37000
 C   270 -- C   550       -0.10      5.37000
 C   269 -- C   549       -0.10      5.37000
 C   268 -- C   548       -0.10      5.37000
 C   267 -- C   547       -0.10      5.37000
 C   266 -- C   546       -0.10      5.37000
 C   130 -- C   465       -0.10      5.37000
 C   129 -- C   464       -0.10      5.37000
 C   128 -- C   463       -0.10      5.37000
 C   127 -- C   462       -0.10      5.37000
 C   126 -- C   461       -0.10      5.37000
 C   240 -- C   525       -0.10      5.37000
 C   239 -- C   524       -0.10      5.37000
 C   238 -- C   523       -0.10      5.37000
 C   237 -- C   522       -0.10      5.37000
 C   236 -- C   521       -0.10      5.37000
 C    23 -- C   478       -0.10      5.37202
 C    49 -- C   469       -0.10      5.37202
 C    48 -- C   468       -0.10      5.37202
 C    47 -- C   467       -0.10      5.37202
 C    22 -- C   477       -0.10      5.37202
 C    46 -- C   466       -0.10      5.37202
 C    21 -- C   476       -0.10      5.37202
 C    25 -- C   480       -0.10      5.37202
 C    24 -- C   479       -0.10      5.37202
 C    50 -- C   470       -0.10      5.37202
 C    24 -- C   449       -0.10      5.37202
 C     6 -- C   416       -0.10      5.37202
 C    23 -- C   448       -0.10      5.37202
 C    22 -- C   447       -0.10      5.37202
 C    10 -- C   470       -0.10      5.37202
 C     5 -- C   450       -0.10      5.37202
 C    21 -- C   446       -0.10      5.37202
 C    10 -- C   420       -0.10      5.37202
 C     9 -- C   469       -0.10      5.37202
 C     9 -- C   419       -0.10      5.37202
 C     8 -- C   468       -0.10      5.37202
 C     4 -- C   449       -0.10      5.37202
 C     8 -- C   418       -0.10      5.37202
 C     2 -- C   447       -0.10      5.37202
 C     7 -- C   467       -0.10      5.37202
 C     7 -- C   417       -0.10      5.37202
 C     1 -- C   446       -0.10      5.37202
 C     6 -- C   466       -0.10      5.37202
 C    25 -- C   450       -0.10      5.37202
 C     3 -- C   448       -0.10      5.37202
 C   285 -- C   580       -0.10      5.37202
 C   284 -- C   579       -0.10      5.37202
 C   283 -- C   578       -0.10      5.37202
 C   282 -- C   577       -0.10      5.37202
 C   281 -- C   576       -0.10      5.37202
 C   260 -- C   605       -0.10      5.37202
 C   259 -- C   604       -0.10      5.37202
 C   258 -- C   603       -0.10      5.37202
 C   257 -- C   602       -0.10      5.37202
 C   256 -- C   601       -0.10      5.37202
 C   219 -- C   569       -0.10      5.37202
 C   218 -- C   568       -0.10      5.37202
 C   217 -- C   567       -0.10      5.37202
 C   216 -- C   566       -0.10      5.37202
 C   250 -- C   540       -0.10      5.37202
 C   249 -- C   539       -0.10      5.37202
 C   248 -- C   538       -0.10      5.37202
 C   247 -- C   537       -0.10      5.37202
 C   246 -- C   536       -0.10      5.37202
 C   220 -- C   570       -0.10      5.37202
 C   205 -- C   550       -0.10      5.37202
 C   204 -- C   549       -0.10      5.37202
 C   203 -- C   548       -0.10      5.37202
 C   202 -- C   547       -0.10      5.37202
 C   201 -- C   546       -0.10      5.37202
 C   260 -- C   550       -0.10      5.37202
 C   259 -- C   549       -0.10      5.37202
 C   258 -- C   548       -0.10      5.37202
 C   257 -- C   547       -0.10      5.37202
 C   256 -- C   546       -0.10      5.37202
 C   230 -- C   580       -0.10      5.37202
 C   230 -- C   525       -0.10      5.37202
 C   229 -- C   579       -0.10      5.37202
 C   229 -- C   524       -0.10      5.37202
 C   228 -- C   578       -0.10      5.37202
 C   228 -- C   523       -0.10      5.37202
 C   227 -- C   577       -0.10      5.37202
 C   227 -- C   522       -0.10      5.37202
 C   226 -- C   576       -0.10      5.37202
 C   226 -- C   521       -0.10      5.37202
 C   220 -- C   515       -0.10      5.37202
 C   219 -- C   514       -0.10      5.37202
 C   218 -- C   513       -0.10      5.37202
 C   217 -- C   512       -0.10      5.37202
 C   216 -- C   511       -0.10      5.37202
 C    11 -- C   331       -0.10      5.37202
 C   195 -- C   540       -0.10      5.37202
 C   195 -- C   500       -0.10      5.37202
 C   194 -- C   539       -0.10      5.37202
 C   194 -- C   499       -0.10      5.37202
 C   193 -- C   538       -0.10      5.37202
 C   193 -- C   498       -0.10      5.37202
 C   192 -- C   537       -0.10      5.37202
 C   192 -- C   497       -0.10      5.37202
 C   191 -- C   536       -0.10      5.37202
 C   191 -- C   496       -0.10      5.37202
 C   180 -- C   515       -0.10      5.37202
 C    40 -- C   365       -0.10      5.37202
 C   179 -- C   514       -0.10      5.37202
 C   178 -- C   513       -0.10      5.37202
 C   177 -- C   512       -0.10      5.37202
 C    39 -- C   364       -0.10      5.37202
 C   176 -- C   511       -0.10      5.37202
 C    38 -- C   363       -0.10      5.37202
 C    37 -- C   362       -0.10      5.37202
 C    36 -- C   361       -0.10      5.37202
 C   150 -- C   440       -0.10      5.37202
 C   149 -- C   439       -0.10      5.37202
 C   148 -- C   438       -0.10      5.37202
 C   147 -- C   437       -0.10      5.37202
 C   146 -- C   436       -0.10      5.37202
 C    15 -- C   335       -0.10      5.37202
 C    65 -- C   345       -0.10      5.37202
 C    64 -- C   344       -0.10      5.37202
 C   135 -- C   460       -0.10      5.37202
 C    63 -- C   343       -0.10      5.37202
 C   134 -- C   459       -0.10      5.37202
 C    30 -- C   325       -0.10      5.37202
 C   133 -- C   458       -0.10      5.37202
 C    62 -- C   342       -0.10      5.37202
 C    14 -- C   334       -0.10      5.37202
 C   132 -- C   457       -0.10      5.37202
 C   131 -- C   456       -0.10      5.37202
 C    61 -- C   341       -0.10      5.37202
 C    29 -- C   324       -0.10      5.37202
 C    28 -- C   323       -0.10      5.37202
 C    13 -- C   333       -0.10      5.37202
 C    27 -- C   322       -0.10      5.37202
 C    26 -- C   321       -0.10      5.37202
 C    12 -- C   332       -0.10      5.37202
 C    95 -- C   365       -0.10      5.37202
 C    94 -- C   364       -0.10      5.37202
 C    93 -- C   363       -0.10      5.37202
 C    92 -- C   362       -0.10      5.37202
 C    91 -- C   361       -0.10      5.37202
 C    65 -- C   395       -0.10      5.37202
 C    64 -- C   394       -0.10      5.37202
 C    63 -- C   393       -0.10      5.37202
 C    30 -- C   355       -0.10      5.37202
 C    62 -- C   392       -0.10      5.37202
 C    61 -- C   391       -0.10      5.37202
 C    29 -- C   354       -0.10      5.37202
 C    28 -- C   353       -0.10      5.37202
 C    27 -- C   352       -0.10      5.37202
 C    26 -- C   351       -0.10      5.37202
 C    55 -- C   335       -0.10      5.37202
 C    54 -- C   334       -0.10      5.37202
 C    53 -- C   333       -0.10      5.37202
 C    52 -- C   332       -0.10      5.37202
 C    51 -- C   331       -0.10      5.37202
 C    95 -- C   425       -0.10      5.37202
 C    94 -- C   424       -0.10      5.37202
 C    93 -- C   423       -0.10      5.37202
 C    92 -- C   422       -0.10      5.37202
 C    91 -- C   421       -0.10      5.37202
 C    85 -- C   355       -0.10      5.37202
 C    84 -- C   354       -0.10      5.37202
 C    83 -- C   353       -0.10      5.37202
 C    82 -- C   352       -0.10      5.37202
 C    81 -- C   351       -0.10      5.37202
 C   120 -- C   395       -0.10      5.37202
 C    55 -- C   385       -0.10      5.37202
 C   119 -- C   394       -0.10      5.37202
 C   118 -- C   393       -0.10      5.37202
 C   117 -- C   392       -0.10      5.37202
 C    54 -- C   384       -0.10      5.37202
 C   116 -- C   391       -0.10      5.37202
 C    53 -- C   383       -0.10      5.37202
 C    52 -- C   382       -0.10      5.37202
 C    51 -- C   381       -0.10      5.37202
 C   106 -- C   436       -0.10      5.37202
 C   106 -- C   376       -0.10      5.37202
 C    80 -- C   410       -0.10      5.37202
 C    79 -- C   409       -0.10      5.37202
 C    78 -- C   408       -0.10      5.37202
 C    77 -- C   407       -0.10      5.37202
 C    76 -- C   406       -0.10      5.37202
 C   135 -- C   410       -0.10      5.37202
 C   134 -- C   409       -0.10      5.37202
 C   133 -- C   408       -0.10      5.37202
 C   132 -- C   407       -0.10      5.37202
 C   131 -- C   406       -0.10      5.37202
 C   110 -- C   440       -0.10      5.37202
 C   110 -- C   380       -0.10      5.37202
 C   109 -- C   439       -0.10      5.37202
 C   109 -- C   379       -0.10      5.37202
 C   108 -- C   438       -0.10      5.37202
 C   108 -- C   378       -0.10      5.37202
 C   107 -- C   437       -0.10      5.37202
 C   107 -- C   377       -0.10      5.37202
 C   215 -- C   635       -0.10      5.38000
 C   214 -- C   634       -0.10      5.38000
 C   213 -- C   633       -0.10      5.38000
 C   212 -- C   632       -0.10      5.38000
 C   211 -- C   631       -0.10      5.38000
 C   190 -- C   620       -0.10      5.38000
 C   189 -- C   619       -0.10      5.38000
 C   188 -- C   618       -0.10      5.38000
 C   187 -- C   617       -0.10      5.38000
 C   186 -- C   616       -0.10      5.38000
 C   175 -- C   595       -0.10      5.38000
 C   174 -- C   594       -0.10      5.38000
 C   173 -- C   593       -0.10      5.38000
 C   172 -- C   592       -0.10      5.38000
 C   171 -- C   591       -0.10      5.38000
 C   245 -- C   640       -0.10      5.38000
 C   244 -- C   639       -0.10      5.38000
 C   243 -- C   638       -0.10      5.38000
 C   242 -- C   637       -0.10      5.38000
 C   241 -- C   636       -0.10      5.38000
==================================================


=================== Orbital energy and occupancy information ===================

      Total number of orbitals:    2560
        Occupancy sum (kernel):    1280.000000001
   Occupancy sum (eigenvalues):    1280.000000001
                 HOMO-LUMO gap:       0.000011477 Eh
                 Mid-gap level:       0.290563457 Eh

                        Orbital | Energy (Eh) | Occupancy
                            1    -0.467436059   1.0000000
                        .......   ...........   .........
                         1272     0.221411995   0.9999890
                         1273     0.221871592   0.9999872
                         1274     0.221883872   0.9999872
                         1275     0.225516569   0.9999597
                         1276     0.225518319   0.9999596
                         1277     0.225974673   0.9999534
                         1278     0.225976539   0.9999534
                         1279     0.226518423   0.9999446
                         1280     0.226966248   0.9999362
                         1281     0.290557719   0.0000298
                        ....... -- gap at 0K -- .........
                         1282     0.290569195   0.0000296
                         1283     0.290814120   0.0000274
                         1284     0.290825660   0.0000273
                         1285     0.291177558   0.0000245
                         1286     0.291190072   0.0000244
                         1287     0.291448506   0.0000225
                         1288     0.291460942   0.0000224
                         1289     0.291673033   0.0000210
                         1290     0.291948880   0.0000192
                         1291     0.292074039   0.0000184
                        .......   ...........   .........
                         2560     1.150039617   0.0000000

================================================================================

===================== Writing canonical molecular orbitals =====================
| Orbital  Energy (eV)  Norm     |
| HOMO      7.90647783  1.000000 | Writing "3.3808312_GO_manual_4x64graphite_HOMO.cube" ... done
Writing "3.3808312_GO_manual_4x64graphite_HOMO.dx" ... done
| LUMO      7.90679013  1.000000 | Writing "3.3808312_GO_manual_4x64graphite_LUMO.cube" ... done
Writing "3.3808312_GO_manual_4x64graphite_LUMO.dx" ... done
================================================================================
 
===================== Density of States (DOS) calculation ======================
Writing "3.3808312_GO_manual_4x64graphite_DOS.txt" ...  done
================================================================================
 
Writing bands to file "3.3808312_GO_manual_4x64graphite.val_bands" ... done
 
================ Projected Density of States (pDOS) calculation ================
 
Constructing AM resolved functions  ...... done
Writing NGWF plot files in formats: CUBE DX ...  done
 
Performing overlap integrals ...  done
 
Computing pDOS weights ...  done
 
All bands spilling parameter =   3.79 %
Occupancy-weighted spilling parameter =   0.90 %
 
 => Outputting data for OptaDOS <=
 
Writing pDOS weights to file "3.3808312_GO_manual_4x64graphite.val_pdos_bin" ... done
 
Writing band gradients to file "3.3808312_GO_manual_4x64graphite.val_dome_bin" ... done
 
Writing Castep output cell file to "3.3808312_GO_manual_4x64graphite-out.cell" ... done
 
 => Computing Gaussian smeared pDOS <= 
Writing "3.3808312_GO_manual_4x64graphite_PDOS.txt" ...  done
 
 => Computing Occupancy-weighted Gaussian smeared pDOS <= 
Writing "3.3808312_GO_manual_4x64graphite_occ_PDOS.txt" ...  done
  => Band centres: 
 S band centre of group 1:  -15.619182 eV
 P band centre of group 1:   -8.473857 eV
  Band centres done. <=
  => Integrated number of electrons in each AM band: 
 S num electrons of group 1:  577.354146
 P num electrons of group 1: 1959.681853
  Integrated number of electrons done. <=
================================================================================

------------------------------ TIMING INFORMATION ------------------------------
AVERAGE TIME:    3804.351s on     40 node(s)                                    
TOTAL TIME:      3804.351s on     40 node(s)                                    
================= AVERAGE TIMINGS FROM ALL NODES (CUMULATIVE) ==================
|| TAG                                    #calls    cpu time   %total  Gflops ||
|| work_imbalance                       :     1        0.00s   0.000%  ------ ||
|| paw_tcore_hartree_on_grid            :     1        0.00s   0.000%  ------ ||
|| paw_tcore_density                    :     1        0.01s   0.000%  ------ ||
|| paw_sphere_density_on_grid           :     1        0.01s   0.000%  ------ ||
|| sparse_set_to_garbage                :   171        0.03s   0.001%  ------ ||
|| paw_dij_hartree                      :   339        0.04s   0.001%  ------ ||
|| pseudo_make_structure_factor         :     1        0.05s   0.001%  ------ ||
|| basis_extract_function_from_box      :  1920        0.08s   0.002%  ------ ||
|| paw_species_calc_proj_prec_mat       :     1        0.12s   0.003%  ------ ||
|| paw_dataset_init                     :     1        0.15s   0.004%  ------ ||
|| density_init_guess_real              :     1        0.21s   0.005%  ------ ||
|| ngwfs_initialise_from_radial         :     2        0.66s   0.017%  ------ ||
|| restart_kernel_write                 :    16        0.80s   0.021%  ------ ||
|| dense_normal_eigensolve              :     1        0.94s   0.025%  ------ ||
|| sparse_init                          :     1        0.94s   0.025%  ------ ||
|| hartree_on_grid                      :   255        1.02s   0.027%  ------ ||
|| ewald_calculate_energy               :     1        2.51s   0.066%  ------ ||
|| projectors_init_fftbox_recip         :   151        2.87s   0.075%  ------ ||
|| fourier_apply_box_pair               :  2848        4.70s   0.124% 562.125 ||
|| basis_copy_function_to_box           : 24192        5.24s   0.138%  ------ ||
|| augmentation_screen_dij              :   260        5.71s   0.150%  ------ ||
|| sw_init                              :     1        6.73s   0.177%  ------ ||
|| sparse_embed_hotelling_invert_embed  :    29        8.38s   0.220%  ------ ||
|| ngwf_gradient_coeffs                 :    15       11.56s   0.304%  ------ ||
|| fourier_apply_cell_backward          :  7876       13.41s   0.352%  69.555 ||
|| fourier_apply_cell_forward           :  7367       14.49s   0.381%  60.198 ||
|| cell_grid_extract_box_real           : 10124       15.19s   0.399%  ------ ||
|| sparse_trace                         :  3066       18.66s   0.490%  ------ ||
|| cell_grid_deposit_box_real           : 32816       20.49s   0.539%  ------ ||
|| paw_dij_xc                           :   339       22.32s   0.587%  ------ ||
|| aug_nonlocal_mat                     :   324       33.10s   0.870%  ------ ||
|| density_fftbox_deposit_to_cell       : 16320       41.31s   1.086%  ------ ||
|| augmentation_density_on_grid         :   255       49.04s   1.289%  ------ ||
|| hamiltonian_energy_components        :     3       49.50s   1.301%  ------ ||
|| eigenstates_pdos                     :     1       53.37s   1.403%  ------ ||
|| eigenstates_calculate                :     1       57.48s   1.511%  ------ ||
|| nlxc_vdw_energy                      :   508       59.71s   1.570%  ------ ||
|| function_ops_brappd_ketppd           :    60       60.89s   1.601%  ------ ||
|| projectors_func_ovlp_box             :    30       68.22s   1.793%  ------ ||
|| xc_energy_potential                  :   254       70.68s   1.858%  ------ ||
|| dense_eigensolve                     :   222       99.34s   2.611%  ------ ||
|| properties_calculate                 :     1      102.89s   2.704%  ------ ||
|| integrals_kinetic                    :    29      104.70s   2.752%  ------ ||
|| potential_apply_to_ngwf_batch        :   312      121.47s   3.193%  ------ ||
|| restart_ngwfs_tightbox_output        :    14      134.47s   3.535%  ------ ||
|| sparse_product                       :  3126      136.98s   3.601%  ------ ||
|| basis_dot_function_with_box          : 7.924M     212.19s   5.578%  ------ ||
|| edft_diag_ngwf_ham                   :   221      235.00s   6.177%  ------ ||
|| fourier_apply_box                    : 76528      236.07s   6.205% 981.246 ||
|| projectors_gradient_batch            :    60      268.20s   7.050%  ------ ||
|| integrals_locpot_mat_els_batch       :   312      284.33s   7.474%  ------ ||
|| density_fftbox_interpolate_multiply  : 16320      316.74s   8.326%  ------ ||
|| projectors_grad_precond_batch        :    60      370.98s   9.752%  ------ ||
|| density_batch_interp_deposit         :  1020      396.93s  10.434%  ------ ||
|| integrals_locpot_dbl_grid            :    78      407.38s  10.708%  ------ ||
|| edft_apply_smearing_operator         :   221      468.74s  12.321%  ------ ||
|| basis_add_function_to_box            : 22.90M     591.24s  15.541%  ------ ||
|| ngwf_gradient_build_batch            :    60      684.44s  17.991%  ------ ||
|| density_batch_row_sums               :  1020      832.34s  21.879%  ------ ||
|| ngwf_gradient_batch                  :    60      919.95s  24.182%  ------ ||
|| ngwf_gradient_lnv                    :    15      947.86s  24.915%  ------ ||
|| density_on_dbl_grid                  :   255     1241.84s  32.643%  ------ ||
|| hamiltonian_lhxc_calculate           :   250     1338.51s  35.184%  ------ ||
|| edft_calculate                       :    15     2198.66s  57.793%  ------ ||
|| ngwf_cg_optimise                     :     1     3675.94s  96.625%  ------ ||
|| total_time                           :     1     3804.35s 100.000%  ------ ||
================================================================================
Overhead of generating timer report: 
- 0 ms averaging over threads,
- 5 ms ensuring consistency across MPI ranks,
- 0 ms printing in order.

Job completed: 26-02-2020 01:46 (-0000)

