 +---------------------------------------------------------------+
 |                                                               |
 |        ####### #     # ####### ####### ####### ######         |
 |        #     # ##    # #          #    #       #     #        |
 |        #     # # #   # #          #    #       #     #        |
 |        #     # #  #  # #####      #    #####   ######         |
 |        #     # #   # # #          #    #       #              |
 |        #     # #    ## #          #    #       #              |
 |        ####### #     # #######    #    ####### #              |
 |                                                               |
 |        Linear-Scaling Ab Initio Total Energy Program          |
 |                                                               |
 |          Release for academic collaborators of ODG            |
 |                                             Version 5.3.2.12  |
 |                                                               |
 +---------------------------------------------------------------+
 |                                                               |
 |  Authors:                                                     |
 |  Jacek Dziedzic, Peter D. Haynes, Nicholas D. M. Hine,        |
 |  Arash. A. Mostofi, Mike C. Payne and Chris-Kriton Skylaris   |
 |                                                               |
 |  Contributors:                                                |
 |  J. Aarons, L. Andrinopoulos, P. W. Avraam, R. A. Bell,       |
 |  A. Bhandari, G. A. Bramley, R. J. Charlton, S. J. Clark,     |
 |  R. J. Clements, G. C. Constantinescu, F. Corsetti,           |
 |  N. Corsini, O. Dieguez, S. M. M. Dubois, K. K. B. Duff,      |
 |  J. M. Escartin, A. Greco, H. Helal, Q. O. Hill, L. P. Lee,   |
 |  J.-H. Li, E. B. Linscott, G. Moynihan, D. D. O`Regan,        |
 |  O. K. Okan, M. J. S. Phipps, C. J. Pickard,                  |
 |  J. C. A. Prentice, M. I. J. Probert, L. E. Ratcliff,         |
 |  M. Robinson, A. Ruiz Serrano, J. S. Spencer, E. W. Tait,     |
 |  G. Teobaldi, D. Turban, V. Vitale, K. A. Wilkinson,          |
 |  C. Weber, J. C. Womack, N. Yeung and T. J. Zuehlsdorff       |
 |                                                               |
 |                                   Copyright (c) 2004-2020     |
 |                                                               |
 |  Please cite:                                                 |
 |  "Introducing ONETEP: Linear-scaling density functional       |
 |   simulations on parallel computers".                         |
 |   C.-K. Skylaris, P. D. Haynes, A. A. Mostofi, M. C. Payne.   |
 |   J. Chem. Phys. 122 084119 (2005).                           |
 |                                                               |
 |          in all publications arising from your use of ONETEP. |
 |                                                               |
 +---------------------------------------------------------------+
 |                                                               |
 |   ONETEP is based on developments described in the following  |
 |   publications:                                               |
 |                                                               |
 |  "Nonorthogonal generalized Wannier function pseudopotential  |
 |   plane-wave method".                                         |
 |   C.-K. Skylaris, A. A. Mostofi, P. D. Haynes, O. Dieguez,    |
 |   M. C. Payne.                                                |
 |   Phys. Rev. B 66 035119 (2002).                              |
 |                                                               |
 |  "Preconditioned iterative minimization for linear-scaling    |
 |   electronic structure calculations".                         |
 |   A. A. Mostofi, P. D. Haynes, C.-K. Skylaris, M. C. Payne.   |
 |   J. Chem. Phys. 119(17), pp.8842-8848 (2003).                |
 |                                                               |
 |  "Total-energy calculations on a real space grid with         |
 |   localized functions and a plane-wave basis".                |
 |   A. A. Mostofi, C.-K. Skylaris, P. D. Haynes, M. C. Payne.   |
 |   Comput. Phys. Commun. 147, pp.788-802 (2002).               |
 |                                                               |
 |  "Accurate kinetic energy evaluation in electronic structure  |
 |   calculations with localized functions on real space grids"  |
 |   C.-K. Skylaris, A. A. Mostofi, P. D. Haynes, C. J. Pickard, |
 |   M. C. Payne.                                                |
 |   Comput. Phys. Commun. 140, pp.315-322 (2001).               |
 |                                                               |
 |  "Accurate ionic forces and geometry optimization in linear-  |
 |   scaling density-functional theory with local orbitals"      |
 |   N. D. M. Hine, M. Robinson, P. D. Haynes, C.-K. Skylaris,   |
 |   M. C. Payne, and A. A. Mostofi.                             |
 |   Phys. Rev. B 83 195102 (2011).                              |
 |                                                               |
 +---------------------------------------------------------------+

Job started: 26-02-2020 00:48 (-0000)
 
Reading parameters from file "3.4344936_GO_manual_4x64graphite.dat" ...

WARNING: "cutoff_energy" not specified, but "psinc_spacing" specified.
         Using the latter to set the KE cutoff energy to  732.32021eV,
         thus *overriding* the default.

... done

If your calculation crashes here, before "Checking processes and threads..."
is displayed, then your stack size is insufficient.
If so, use "ulimit -s unlimited" at runtime.
You can disable this check with "check_stack_size F".

Checking processes and threads...
   Determining the default number of threads...
      No default threads set at compilation time: defaulting to 1.
      OpenMP library call suggests 4 threads.
      Hybrid MPI-OpenMP compilation detected.
      Number of MPI processes > 1.
      OMP_NUM_THREADS environment variable present and
      its value matches the one obtained from the OpenMP library call.
      Using this value as default.
      Default threads: 4
      Default applies to threads_max and threads_num_fftboxes.
      Settings in the input file override this default.
   ... done

   Running with 40 MPI processes.
   There are 10 MPI processes running on the same node as the root process.
   Each MPI process is using: 
               1 threads for simulation cell FFTs.
               1 threads for parallel FFT box operations.
               4 threads for loops over batched FFT box operations.
               4 threads in other parallel regions.
... done

Basic input checks...
Resetting ngwf_cg_rotate to TRUE for EDFT calculations
... done

Reading geometry and species blocks from file "3.4344936_GO_manual_4x64graphite.dat" ...
    
  PSINC grid spacing along a1 set to   0.511215680000a0 from input file.
  PSINC grid spacing along a2 set to   0.531284090000a0 from input file.
  PSINC grid spacing along a3 set to   0.507052000000a0 from input file.
  Number of PPD points along a3 set to 1.  This is 
  the default value, it may have been provided also in the input file.
... done
 Writing xyz coordinates to file "3.4344936_GO_manual_4x64graphite.xyz" ... done


--------------------------------------------------------------------------------
---------------------------------- INPUT FILE ----------------------------------
--------------------------------------------------------------------------------

task : singlepoint                                                              
do_properties : true                                                            
dx_format T                                                                     
edft T                                                                          
output_detail VERBOSE                                                           
write_xyz T                                                                     
xc_functional VDWDF                                                             
PSINC_SPACING 0.51121568 0.53128409 0.50705200                                  
paw T                                                                           
pdos_max_l = 2                                                                  
dos_smear  0.1 eV                                                               
popn_calculate T                                                                
PDOS_PSEUDOATOMIC T                                                             
PDOS_REDUCE_SWS F                                                               
PDOS_CONSTRUCT_BASIS F                                                          
PDOS_LOWDIN T                                                                   
PDOS_ORTH_ATOM_BLOCKS F                                                         
PDOS_LCAO_OPTIMIZE F                                                            
pdos_optados_output T                                                           
homo_plot 0                                                                     
lumo_plot 0                                                                     
homo_dens_plot -1                                                               
lumo_dens_plot -1                                                               
%BLOCK SPECIES                                                                  
C C 6 4 9.0                                                                     
%ENDBLOCK SPECIES                                                               
%BLOCK SPECIES_POT                                                              
C "~/pp/paw/c_pbe_abinit.paw"                                                   
%ENDBLOCK SPECIES_POT                                                           
%BLOCK SPECIES_ATOMIC_SET                                                       
C "SOLVE conf=2s2 2p2"                                                          
%ENDBLOCK SPECIES_ATOMIC_SET                                                    
%BLOCK LATTICE_CART                                                             
32.21  0.00  0.00                                                               
0.00 18.59  0.00                                                                
0.00  0.00 64.90                                                                
%ENDBLOCK LATTICE_CART                                                          
%BLOCK POSITIONS_ABS                                                            
C  0.00  0.00  3.25                                                             
C  0.00  0.00 16.23                                                             
C  0.00  0.00 29.21                                                             
C  0.00  0.00 42.19                                                             
C  0.00  0.00 55.17                                                             
C  0.00  4.65  3.25                                                             
C  0.00  4.65 16.23                                                             
C  0.00  4.65 29.21                                                             
C  0.00  4.65 42.19                                                             
C  0.00  4.65 55.17                                                             
C  4.03  2.32  3.25                                                             
C  4.03  2.32 16.23                                                             
C  4.03  2.32 29.21                                                             
C  4.03  2.32 42.19                                                             
C  4.03  2.32 55.17                                                             
C  8.05  0.00  3.25                                                             
C  8.05  0.00 16.23                                                             
C  8.05  0.00 29.21                                                             
C  8.05  0.00 42.19                                                             
C  8.05  0.00 55.17                                                             
C  0.00  9.30  3.25                                                             
C  0.00  9.30 16.23                                                             
C  0.00  9.30 29.21                                                             
C  0.00  9.30 42.19                                                             
C  0.00  9.30 55.17                                                             
C  4.03  6.97  3.25                                                             
C  4.03  6.97 16.23                                                             
C  4.03  6.97 29.21                                                             
C  4.03  6.97 42.19                                                             
C  4.03  6.97 55.17                                                             
C  8.05  4.65  3.25                                                             
C  8.05  4.65 16.23                                                             
C  8.05  4.65 29.21                                                             
C  8.05  4.65 42.19                                                             
C  8.05  4.65 55.17                                                             
C 12.08  2.32  3.25                                                             
C 12.08  2.32 16.23                                                             
C 12.08  2.32 29.21                                                             
C 12.08  2.32 42.19                                                             
C 12.08  2.32 55.17                                                             
C 16.10  0.00  3.25                                                             
C 16.10  0.00 16.23                                                             
C 16.10  0.00 29.21                                                             
C 16.10  0.00 42.19                                                             
C 16.10  0.00 55.17                                                             
C  0.00 13.95  3.25                                                             
C  0.00 13.95 16.23                                                             
C  0.00 13.95 29.21                                                             
C  0.00 13.95 42.19                                                             
C  0.00 13.95 55.17                                                             
C  4.03 11.62  3.25                                                             
C  4.03 11.62 16.23                                                             
C  4.03 11.62 29.21                                                             
C  4.03 11.62 42.19                                                             
C  4.03 11.62 55.17                                                             
C  8.05  9.30  3.25                                                             
C  8.05  9.30 16.23                                                             
C  8.05  9.30 29.21                                                             
C  8.05  9.30 42.19                                                             
C  8.05  9.30 55.17                                                             
C 12.08  6.97  3.25                                                             
C 12.08  6.97 16.23                                                             
C 12.08  6.97 29.21                                                             
C 12.08  6.97 42.19                                                             
C 12.08  6.97 55.17                                                             
C 16.10  4.65  3.25                                                             
C 16.10  4.65 16.23                                                             
C 16.10  4.65 29.21                                                             
C 16.10  4.65 42.19                                                             
C 16.10  4.65 55.17                                                             
C 20.13  2.32  3.25                                                             
C 20.13  2.32 16.23                                                             
C 20.13  2.32 29.21                                                             
C 20.13  2.32 42.19                                                             
C 20.13  2.32 55.17                                                             
C 24.16  0.00  3.25                                                             
C 24.16  0.00 16.23                                                             
C 24.16  0.00 29.21                                                             
C 24.16  0.00 42.19                                                             
C 24.16  0.00 55.17                                                             
C  4.03 16.27  3.25                                                             
C  4.03 16.27 16.23                                                             
C  4.03 16.27 29.21                                                             
C  4.03 16.27 42.19                                                             
C  4.03 16.27 55.17                                                             
C  8.05 13.95  3.25                                                             
C  8.05 13.95 16.23                                                             
C  8.05 13.95 29.21                                                             
C  8.05 13.95 42.19                                                             
C  8.05 13.95 55.17                                                             
C 12.08 11.62  3.25                                                             
C 12.08 11.62 16.23                                                             
C 12.08 11.62 29.21                                                             
C 12.08 11.62 42.19                                                             
C 12.08 11.62 55.17                                                             
C 16.10  9.30  3.25                                                             
C 16.10  9.30 16.23                                                             
C 16.10  9.30 29.21                                                             
C 16.10  9.30 42.19                                                             
C 16.10  9.30 55.17                                                             
C 20.13  6.97  3.25                                                             
C 20.13  6.97 16.23                                                             
C 20.13  6.97 29.21                                                             
C 20.13  6.97 42.19                                                             
C 20.13  6.97 55.17                                                             
C 24.16  4.65  3.25                                                             
C 24.16  4.65 16.23                                                             
C 24.16  4.65 29.21                                                             
C 24.16  4.65 42.19                                                             
C 24.16  4.65 55.17                                                             
C 28.18  2.32  3.25                                                             
C 28.18  2.32 16.23                                                             
C 28.18  2.32 29.21                                                             
C 28.18  2.32 42.19                                                             
C 28.18  2.32 55.17                                                             
C 12.08 16.27  3.25                                                             
C 12.08 16.27 16.23                                                             
C 12.08 16.27 29.21                                                             
C 12.08 16.27 42.19                                                             
C 12.08 16.27 55.17                                                             
C 16.10 13.95  3.25                                                             
C 16.10 13.95 16.23                                                             
C 16.10 13.95 29.21                                                             
C 16.10 13.95 42.19                                                             
C 16.10 13.95 55.17                                                             
C 20.13 11.62  3.25                                                             
C 20.13 11.62 16.23                                                             
C 20.13 11.62 29.21                                                             
C 20.13 11.62 42.19                                                             
C 20.13 11.62 55.17                                                             
C 24.16  9.30  3.25                                                             
C 24.16  9.30 16.23                                                             
C 24.16  9.30 29.21                                                             
C 24.16  9.30 42.19                                                             
C 24.16  9.30 55.17                                                             
C 28.18  6.97  3.25                                                             
C 28.18  6.97 16.23                                                             
C 28.18  6.97 29.21                                                             
C 28.18  6.97 42.19                                                             
C 28.18  6.97 55.17                                                             
C 20.13 16.27  3.25                                                             
C 20.13 16.27 16.23                                                             
C 20.13 16.27 29.21                                                             
C 20.13 16.27 42.19                                                             
C 20.13 16.27 55.17                                                             
C 24.16 13.95  3.25                                                             
C 24.16 13.95 16.23                                                             
C 24.16 13.95 29.21                                                             
C 24.16 13.95 42.19                                                             
C 24.16 13.95 55.17                                                             
C 28.18 11.62  3.25                                                             
C 28.18 11.62 16.23                                                             
C 28.18 11.62 29.21                                                             
C 28.18 11.62 42.19                                                             
C 28.18 11.62 55.17                                                             
C 28.18 16.27  3.25                                                             
C 28.18 16.27 16.23                                                             
C 28.18 16.27 29.21                                                             
C 28.18 16.27 42.19                                                             
C 28.18 16.27 55.17                                                             
C  0.00  0.00  9.74                                                             
C  0.00  0.00 22.72                                                             
C  0.00  0.00 35.70                                                             
C  0.00  0.00 48.68                                                             
C  0.00  0.00 61.66                                                             
C  0.00  4.65  9.74                                                             
C  0.00  4.65 22.72                                                             
C  0.00  4.65 35.70                                                             
C  0.00  4.65 48.68                                                             
C  0.00  4.65 61.66                                                             
C  4.03  2.32  9.74                                                             
C  4.03  2.32 22.72                                                             
C  4.03  2.32 35.70                                                             
C  4.03  2.32 48.68                                                             
C  4.03  2.32 61.66                                                             
C  8.05  0.00  9.74                                                             
C  8.05  0.00 22.72                                                             
C  8.05  0.00 35.70                                                             
C  8.05  0.00 48.68                                                             
C  8.05  0.00 61.66                                                             
C  0.00  9.30  9.74                                                             
C  0.00  9.30 22.72                                                             
C  0.00  9.30 35.70                                                             
C  0.00  9.30 48.68                                                             
C  0.00  9.30 61.66                                                             
C  4.03  6.97  9.74                                                             
C  4.03  6.97 22.72                                                             
C  4.03  6.97 35.70                                                             
C  4.03  6.97 48.68                                                             
C  4.03  6.97 61.66                                                             
C  8.05  4.65  9.74                                                             
C  8.05  4.65 22.72                                                             
C  8.05  4.65 35.70                                                             
C  8.05  4.65 48.68                                                             
C  8.05  4.65 61.66                                                             
C 12.08  2.32  9.74                                                             
C 12.08  2.32 22.72                                                             
C 12.08  2.32 35.70                                                             
C 12.08  2.32 48.68                                                             
C 12.08  2.32 61.66                                                             
C 16.10  0.00  9.74                                                             
C 16.10  0.00 22.72                                                             
C 16.10  0.00 35.70                                                             
C 16.10  0.00 48.68                                                             
C 16.10  0.00 61.66                                                             
C  0.00 13.95  9.74                                                             
C  0.00 13.95 22.72                                                             
C  0.00 13.95 35.70                                                             
C  0.00 13.95 48.68                                                             
C  0.00 13.95 61.66                                                             
C  4.03 11.62  9.74                                                             
C  4.03 11.62 22.72                                                             
C  4.03 11.62 35.70                                                             
C  4.03 11.62 48.68                                                             
C  4.03 11.62 61.66                                                             
C  8.05  9.30  9.74                                                             
C  8.05  9.30 22.72                                                             
C  8.05  9.30 35.70                                                             
C  8.05  9.30 48.68                                                             
C  8.05  9.30 61.66                                                             
C 12.08  6.97  9.74                                                             
C 12.08  6.97 22.72                                                             
C 12.08  6.97 35.70                                                             
C 12.08  6.97 48.68                                                             
C 12.08  6.97 61.66                                                             
C 16.10  4.65  9.74                                                             
C 16.10  4.65 22.72                                                             
C 16.10  4.65 35.70                                                             
C 16.10  4.65 48.68                                                             
C 16.10  4.65 61.66                                                             
C 20.13  2.32  9.74                                                             
C 20.13  2.32 22.72                                                             
C 20.13  2.32 35.70                                                             
C 20.13  2.32 48.68                                                             
C 20.13  2.32 61.66                                                             
C 24.16  0.00  9.74                                                             
C 24.16  0.00 22.72                                                             
C 24.16  0.00 35.70                                                             
C 24.16  0.00 48.68                                                             
C 24.16  0.00 61.66                                                             
C  4.03 16.27  9.74                                                             
C  4.03 16.27 22.72                                                             
C  4.03 16.27 35.70                                                             
C  4.03 16.27 48.68                                                             
C  4.03 16.27 61.66                                                             
C  8.05 13.95  9.74                                                             
C  8.05 13.95 22.72                                                             
C  8.05 13.95 35.70                                                             
C  8.05 13.95 48.68                                                             
C  8.05 13.95 61.66                                                             
C 12.08 11.62  9.74                                                             
C 12.08 11.62 22.72                                                             
C 12.08 11.62 35.70                                                             
C 12.08 11.62 48.68                                                             
C 12.08 11.62 61.66                                                             
C 16.10  9.30  9.74                                                             
C 16.10  9.30 22.72                                                             
C 16.10  9.30 35.70                                                             
C 16.10  9.30 48.68                                                             
C 16.10  9.30 61.66                                                             
C 20.13  6.97  9.74                                                             
C 20.13  6.97 22.72                                                             
C 20.13  6.97 35.70                                                             
C 20.13  6.97 48.68                                                             
C 20.13  6.97 61.66                                                             
C 24.16  4.65  9.74                                                             
C 24.16  4.65 22.72                                                             
C 24.16  4.65 35.70                                                             
C 24.16  4.65 48.68                                                             
C 24.16  4.65 61.66                                                             
C 28.18  2.32  9.74                                                             
C 28.18  2.32 22.72                                                             
C 28.18  2.32 35.70                                                             
C 28.18  2.32 48.68                                                             
C 28.18  2.32 61.66                                                             
C 12.08 16.27  9.74                                                             
C 12.08 16.27 22.72                                                             
C 12.08 16.27 35.70                                                             
C 12.08 16.27 48.68                                                             
C 12.08 16.27 61.66                                                             
C 16.10 13.95  9.74                                                             
C 16.10 13.95 22.72                                                             
C 16.10 13.95 35.70                                                             
C 16.10 13.95 48.68                                                             
C 16.10 13.95 61.66                                                             
C 20.13 11.62  9.74                                                             
C 20.13 11.62 22.72                                                             
C 20.13 11.62 35.70                                                             
C 20.13 11.62 48.68                                                             
C 20.13 11.62 61.66                                                             
C 24.16  9.30  9.74                                                             
C 24.16  9.30 22.72                                                             
C 24.16  9.30 35.70                                                             
C 24.16  9.30 48.68                                                             
C 24.16  9.30 61.66                                                             
C 28.18  6.97  9.74                                                             
C 28.18  6.97 22.72                                                             
C 28.18  6.97 35.70                                                             
C 28.18  6.97 48.68                                                             
C 28.18  6.97 61.66                                                             
C 20.13 16.27  9.74                                                             
C 20.13 16.27 22.72                                                             
C 20.13 16.27 35.70                                                             
C 20.13 16.27 48.68                                                             
C 20.13 16.27 61.66                                                             
C 24.16 13.95  9.74                                                             
C 24.16 13.95 22.72                                                             
C 24.16 13.95 35.70                                                             
C 24.16 13.95 48.68                                                             
C 24.16 13.95 61.66                                                             
C 28.18 11.62  9.74                                                             
C 28.18 11.62 22.72                                                             
C 28.18 11.62 35.70                                                             
C 28.18 11.62 48.68                                                             
C 28.18 11.62 61.66                                                             
C 28.18 16.27  9.74                                                             
C 28.18 16.27 22.72                                                             
C 28.18 16.27 35.70                                                             
C 28.18 16.27 48.68                                                             
C 28.18 16.27 61.66                                                             
C  1.34  2.32  3.25                                                             
C  1.34  2.32 16.23                                                             
C  1.34  2.32 29.21                                                             
C  1.34  2.32 42.19                                                             
C  1.34  2.32 55.17                                                             
C  5.37  0.00  3.25                                                             
C  5.37  0.00 16.23                                                             
C  5.37  0.00 29.21                                                             
C  5.37  0.00 42.19                                                             
C  5.37  0.00 55.17                                                             
C  1.34  6.97  3.25                                                             
C  1.34  6.97 16.23                                                             
C  1.34  6.97 29.21                                                             
C  1.34  6.97 42.19                                                             
C  1.34  6.97 55.17                                                             
C  5.37  4.65  3.25                                                             
C  5.37  4.65 16.23                                                             
C  5.37  4.65 29.21                                                             
C  5.37  4.65 42.19                                                             
C  5.37  4.65 55.17                                                             
C  9.39  2.32  3.25                                                             
C  9.39  2.32 16.23                                                             
C  9.39  2.32 29.21                                                             
C  9.39  2.32 42.19                                                             
C  9.39  2.32 55.17                                                             
C 13.42  0.00  3.25                                                             
C 13.42  0.00 16.23                                                             
C 13.42  0.00 29.21                                                             
C 13.42  0.00 42.19                                                             
C 13.42  0.00 55.17                                                             
C  1.34 11.62  3.25                                                             
C  1.34 11.62 16.23                                                             
C  1.34 11.62 29.21                                                             
C  1.34 11.62 42.19                                                             
C  1.34 11.62 55.17                                                             
C  5.37  9.30  3.25                                                             
C  5.37  9.30 16.23                                                             
C  5.37  9.30 29.21                                                             
C  5.37  9.30 42.19                                                             
C  5.37  9.30 55.17                                                             
C  9.39  6.97  3.25                                                             
C  9.39  6.97 16.23                                                             
C  9.39  6.97 29.21                                                             
C  9.39  6.97 42.19                                                             
C  9.39  6.97 55.17                                                             
C 13.42  4.65  3.25                                                             
C 13.42  4.65 16.23                                                             
C 13.42  4.65 29.21                                                             
C 13.42  4.65 42.19                                                             
C 13.42  4.65 55.17                                                             
C 17.45  2.32  3.25                                                             
C 17.45  2.32 16.23                                                             
C 17.45  2.32 29.21                                                             
C 17.45  2.32 42.19                                                             
C 17.45  2.32 55.17                                                             
C 21.47  0.00  3.25                                                             
C 21.47  0.00 16.23                                                             
C 21.47  0.00 29.21                                                             
C 21.47  0.00 42.19                                                             
C 21.47  0.00 55.17                                                             
C  1.34 16.27  3.25                                                             
C  1.34 16.27 16.23                                                             
C  1.34 16.27 29.21                                                             
C  1.34 16.27 42.19                                                             
C  1.34 16.27 55.17                                                             
C  5.37 13.95  3.25                                                             
C  5.37 13.95 16.23                                                             
C  5.37 13.95 29.21                                                             
C  5.37 13.95 42.19                                                             
C  5.37 13.95 55.17                                                             
C  9.39 11.62  3.25                                                             
C  9.39 11.62 16.23                                                             
C  9.39 11.62 29.21                                                             
C  9.39 11.62 42.19                                                             
C  9.39 11.62 55.17                                                             
C 13.42  9.30  3.25                                                             
C 13.42  9.30 16.23                                                             
C 13.42  9.30 29.21                                                             
C 13.42  9.30 42.19                                                             
C 13.42  9.30 55.17                                                             
C 17.45  6.97  3.25                                                             
C 17.45  6.97 16.23                                                             
C 17.45  6.97 29.21                                                             
C 17.45  6.97 42.19                                                             
C 17.45  6.97 55.17                                                             
C 21.47  4.65  3.25                                                             
C 21.47  4.65 16.23                                                             
C 21.47  4.65 29.21                                                             
C 21.47  4.65 42.19                                                             
C 21.47  4.65 55.17                                                             
C 25.50  2.32  3.25                                                             
C 25.50  2.32 16.23                                                             
C 25.50  2.32 29.21                                                             
C 25.50  2.32 42.19                                                             
C 25.50  2.32 55.17                                                             
C 29.52  0.00  3.25                                                             
C 29.52  0.00 16.23                                                             
C 29.52  0.00 29.21                                                             
C 29.52  0.00 42.19                                                             
C 29.52  0.00 55.17                                                             
C  9.39 16.27  3.25                                                             
C  9.39 16.27 16.23                                                             
C  9.39 16.27 29.21                                                             
C  9.39 16.27 42.19                                                             
C  9.39 16.27 55.17                                                             
C 13.42 13.95  3.25                                                             
C 13.42 13.95 16.23                                                             
C 13.42 13.95 29.21                                                             
C 13.42 13.95 42.19                                                             
C 13.42 13.95 55.17                                                             
C 17.45 11.62  3.25                                                             
C 17.45 11.62 16.23                                                             
C 17.45 11.62 29.21                                                             
C 17.45 11.62 42.19                                                             
C 17.45 11.62 55.17                                                             
C 21.47  9.30  3.25                                                             
C 21.47  9.30 16.23                                                             
C 21.47  9.30 29.21                                                             
C 21.47  9.30 42.19                                                             
C 21.47  9.30 55.17                                                             
C 25.50  6.97  3.25                                                             
C 25.50  6.97 16.23                                                             
C 25.50  6.97 29.21                                                             
C 25.50  6.97 42.19                                                             
C 25.50  6.97 55.17                                                             
C 29.52  4.65  3.25                                                             
C 29.52  4.65 16.23                                                             
C 29.52  4.65 29.21                                                             
C 29.52  4.65 42.19                                                             
C 29.52  4.65 55.17                                                             
C 17.45 16.27  3.25                                                             
C 17.45 16.27 16.23                                                             
C 17.45 16.27 29.21                                                             
C 17.45 16.27 42.19                                                             
C 17.45 16.27 55.17                                                             
C 21.47 13.95  3.25                                                             
C 21.47 13.95 16.23                                                             
C 21.47 13.95 29.21                                                             
C 21.47 13.95 42.19                                                             
C 21.47 13.95 55.17                                                             
C 25.50 11.62  3.25                                                             
C 25.50 11.62 16.23                                                             
C 25.50 11.62 29.21                                                             
C 25.50 11.62 42.19                                                             
C 25.50 11.62 55.17                                                             
C 29.52  9.30  3.25                                                             
C 29.52  9.30 16.23                                                             
C 29.52  9.30 29.21                                                             
C 29.52  9.30 42.19                                                             
C 29.52  9.30 55.17                                                             
C 25.50 16.27  3.25                                                             
C 25.50 16.27 16.23                                                             
C 25.50 16.27 29.21                                                             
C 25.50 16.27 42.19                                                             
C 25.50 16.27 55.17                                                             
C 29.52 13.95  3.25                                                             
C 29.52 13.95 16.23                                                             
C 29.52 13.95 29.21                                                             
C 29.52 13.95 42.19                                                             
C 29.52 13.95 55.17                                                             
C  2.68  0.00  9.74                                                             
C  2.68  0.00 22.72                                                             
C  2.68  0.00 35.70                                                             
C  2.68  0.00 48.68                                                             
C  2.68  0.00 61.66                                                             
C  2.68  4.65  9.74                                                             
C  2.68  4.65 22.72                                                             
C  2.68  4.65 35.70                                                             
C  2.68  4.65 48.68                                                             
C  2.68  4.65 61.66                                                             
C  6.71  2.32  9.74                                                             
C  6.71  2.32 22.72                                                             
C  6.71  2.32 35.70                                                             
C  6.71  2.32 48.68                                                             
C  6.71  2.32 61.66                                                             
C 10.74  0.00  9.74                                                             
C 10.74  0.00 22.72                                                             
C 10.74  0.00 35.70                                                             
C 10.74  0.00 48.68                                                             
C 10.74  0.00 61.66                                                             
C  2.68  9.30  9.74                                                             
C  2.68  9.30 22.72                                                             
C  2.68  9.30 35.70                                                             
C  2.68  9.30 48.68                                                             
C  2.68  9.30 61.66                                                             
C  6.71  6.97  9.74                                                             
C  6.71  6.97 22.72                                                             
C  6.71  6.97 35.70                                                             
C  6.71  6.97 48.68                                                             
C  6.71  6.97 61.66                                                             
C 10.74  4.65  9.74                                                             
C 10.74  4.65 22.72                                                             
C 10.74  4.65 35.70                                                             
C 10.74  4.65 48.68                                                             
C 10.74  4.65 61.66                                                             
C 14.76  2.32  9.74                                                             
C 14.76  2.32 22.72                                                             
C 14.76  2.32 35.70                                                             
C 14.76  2.32 48.68                                                             
C 14.76  2.32 61.66                                                             
C 18.79  0.00  9.74                                                             
C 18.79  0.00 22.72                                                             
C 18.79  0.00 35.70                                                             
C 18.79  0.00 48.68                                                             
C 18.79  0.00 61.66                                                             
C  2.68 13.95  9.74                                                             
C  2.68 13.95 22.72                                                             
C  2.68 13.95 35.70                                                             
C  2.68 13.95 48.68                                                             
C  2.68 13.95 61.66                                                             
C  6.71 11.62  9.74                                                             
C  6.71 11.62 22.72                                                             
C  6.71 11.62 35.70                                                             
C  6.71 11.62 48.68                                                             
C  6.71 11.62 61.66                                                             
C 10.74  9.30  9.74                                                             
C 10.74  9.30 22.72                                                             
C 10.74  9.30 35.70                                                             
C 10.74  9.30 48.68                                                             
C 10.74  9.30 61.66                                                             
C 14.76  6.97  9.74                                                             
C 14.76  6.97 22.72                                                             
C 14.76  6.97 35.70                                                             
C 14.76  6.97 48.68                                                             
C 14.76  6.97 61.66                                                             
C 18.79  4.65  9.74                                                             
C 18.79  4.65 22.72                                                             
C 18.79  4.65 35.70                                                             
C 18.79  4.65 48.68                                                             
C 18.79  4.65 61.66                                                             
C 22.81  2.32  9.74                                                             
C 22.81  2.32 22.72                                                             
C 22.81  2.32 35.70                                                             
C 22.81  2.32 48.68                                                             
C 22.81  2.32 61.66                                                             
C 26.84  0.00  9.74                                                             
C 26.84  0.00 22.72                                                             
C 26.84  0.00 35.70                                                             
C 26.84  0.00 48.68                                                             
C 26.84  0.00 61.66                                                             
C  6.71 16.27  9.74                                                             
C  6.71 16.27 22.72                                                             
C  6.71 16.27 35.70                                                             
C  6.71 16.27 48.68                                                             
C  6.71 16.27 61.66                                                             
C 10.74 13.95  9.74                                                             
C 10.74 13.95 22.72                                                             
C 10.74 13.95 35.70                                                             
C 10.74 13.95 48.68                                                             
C 10.74 13.95 61.66                                                             
C 14.76 11.62  9.74                                                             
C 14.76 11.62 22.72                                                             
C 14.76 11.62 35.70                                                             
C 14.76 11.62 48.68                                                             
C 14.76 11.62 61.66                                                             
C 18.79  9.30  9.74                                                             
C 18.79  9.30 22.72                                                             
C 18.79  9.30 35.70                                                             
C 18.79  9.30 48.68                                                             
C 18.79  9.30 61.66                                                             
C 22.81  6.97  9.74                                                             
C 22.81  6.97 22.72                                                             
C 22.81  6.97 35.70                                                             
C 22.81  6.97 48.68                                                             
C 22.81  6.97 61.66                                                             
C 26.84  4.65  9.74                                                             
C 26.84  4.65 22.72                                                             
C 26.84  4.65 35.70                                                             
C 26.84  4.65 48.68                                                             
C 26.84  4.65 61.66                                                             
C 30.86  2.32  9.74                                                             
C 30.86  2.32 22.72                                                             
C 30.86  2.32 35.70                                                             
C 30.86  2.32 48.68                                                             
C 30.86  2.32 61.66                                                             
C 14.76 16.27  9.74                                                             
C 14.76 16.27 22.72                                                             
C 14.76 16.27 35.70                                                             
C 14.76 16.27 48.68                                                             
C 14.76 16.27 61.66                                                             
C 18.79 13.95  9.74                                                             
C 18.79 13.95 22.72                                                             
C 18.79 13.95 35.70                                                             
C 18.79 13.95 48.68                                                             
C 18.79 13.95 61.66                                                             
C 22.81 11.62  9.74                                                             
C 22.81 11.62 22.72                                                             
C 22.81 11.62 35.70                                                             
C 22.81 11.62 48.68                                                             
C 22.81 11.62 61.66                                                             
C 26.84  9.30  9.74                                                             
C 26.84  9.30 22.72                                                             
C 26.84  9.30 35.70                                                             
C 26.84  9.30 48.68                                                             
C 26.84  9.30 61.66                                                             
C 30.86  6.97  9.74                                                             
C 30.86  6.97 22.72                                                             
C 30.86  6.97 35.70                                                             
C 30.86  6.97 48.68                                                             
C 30.86  6.97 61.66                                                             
C 22.81 16.27  9.74                                                             
C 22.81 16.27 22.72                                                             
C 22.81 16.27 35.70                                                             
C 22.81 16.27 48.68                                                             
C 22.81 16.27 61.66                                                             
C 26.84 13.95  9.74                                                             
C 26.84 13.95 22.72                                                             
C 26.84 13.95 35.70                                                             
C 26.84 13.95 48.68                                                             
C 26.84 13.95 61.66                                                             
C 30.86 11.62  9.74                                                             
C 30.86 11.62 22.72                                                             
C 30.86 11.62 35.70                                                             
C 30.86 11.62 48.68                                                             
C 30.86 11.62 61.66                                                             
C 30.86 16.27  9.74                                                             
C 30.86 16.27 22.72                                                             
C 30.86 16.27 35.70                                                             
C 30.86 16.27 48.68                                                             
C 30.86 16.27 61.66                                                             
%ENDBLOCK POSITIONS_ABS                                                         

--------------------------------------------------------------------------------
-------------------------------- END INPUT FILE --------------------------------
--------------------------------------------------------------------------------


 
<<<<<<<<<<<<<<<<<<<<<<<<<<<<<<<<< Full system >>>>>>>>>>>>>>>>>>>>>>>>>>>>>>>>>>
<<<<<<<<<<<<<<<<<<<<<<<<<<< PAW Dataset information >>>>>>>>>>>>>>>>>>>>>>>>>>>
File: ~/pp/paw/c_pbe_abinit.paw; rc = 1.25 bohr; shape type =  3; rshape = 1.25 bohr;
  Atomic number:  6;  ionic charge:  4.000000
    Partial Wave 1: l = 0
    Partial Wave 2: l = 0
    Partial Wave 3: l = 1
    Partial Wave 4: l = 1
  Core charge supplied for Nonlinear Core Corrections
<<<<<<<<<<<<<<<<<<<<<<<<<<<<<<<<<<<<<<< >>>>>>>>>>>>>>>>>>>>>>>>>>>>>>>>>>>>>>>

-------------------------- Atom counting information ---------------------------
Symbol    Natoms    Nngwfs    Nprojs
  C        640      2560      5120
.......   ......    ......    ......
Totals:    640      2560      5120
--------------------------------------------------------------------------------

=============================== PSINC grid sizes ===============================
                      Simulation cell:   63 x  35 x 128
                              FFT-box:   63 x  35 x 117
                                  PPD:    7 x   5 x   1
Grid space d1=  0.511269841270a0 (KE cutoff=  29.06054Eh = 790.77748eV)
Grid space d2=  0.531142857143a0 (KE cutoff=  26.92659Eh = 732.70972eV)
Grid space d3=  0.507031250000a0 (KE cutoff=  29.54844Eh = 804.05395eV)
================================================================================
  
WARNING in cell_grid_distribute:
Average of less than one 23-slab per node, so workload cannot be
equally balanced between nodes.

********************* Fourier parallelisation information **********************
       Coarse grid (whole simulation cell) dimensions:     63    35   128
          Real-space ('12') slabs/node (min max mean):      3     4     3
         Recip-space ('23') slabs/node (min max mean):      0     1     0
********************************************************************************

********************* Fourier parallelisation information **********************
       Double grid (whole simulation cell) dimensions:    126    70   256
          Real-space ('12') slabs/node (min max mean):      6     7     6
         Recip-space ('23') slabs/node (min max mean):      1     2     1
********************************************************************************

Atom SCF Calculation for C  : Z (AE atom) =   6 : Z (PS atom) =   4
Config String: 2s2 2p2
Orbitals (num,occ):  2     2.00 2.00
Orbitals   (num,l):  2        0    1
Real-space Grid (nr,dr,rmax): 1293    0.0069659443    9.0000000000
Spherical Bessel Basis (nsws,lmax,cutoff):   37    2  161.4736382572
Confining potential (l,width,scale):  0    3.0000000000  100.0000000000
Confining potential (l,width,scale):  1    3.0000000000  100.0000000000
  1         -5.4966243538   -1.3415066196    4.5135257941   -1.6613421942
  2         -5.4660395227   -1.4172174419    4.4326892861   -1.6365362708
  3         -5.4759582348   -1.4337557188    4.4144498970   -1.6324663609
  4         -5.4843804720   -1.4365219414    4.4114201180   -1.6322033818
  5         -5.4882713954   -1.4381734139    4.4096331461   -1.6320227940
  6         -5.4902132675   -1.4390636620    4.4086785626   -1.6319270645
  7         -5.4912093711   -1.4395303631    4.4081823351   -1.6318789226
  8         -5.4917264140   -1.4397726342    4.4079268833   -1.6318551036
  9         -5.4919964206   -1.4398979410    4.4077958777   -1.6318434025
 10         -5.4921379132   -1.4399626875    4.4077287721   -1.6318376788
 11         -5.4922122245   -1.4399961532    4.4076943935   -1.6318348878
 12         -5.4922513136   -1.4400134684    4.4076767658   -1.6318335308
 13         -5.4922719001   -1.4400224400    4.4076677156   -1.6318328728
 14         -5.4922827535   -1.4400270959    4.4076630621   -1.6318325547
 15         -5.4922884809   -1.4400295164    4.4076606653   -1.6318324014
 16         -5.4922915059   -1.4400307770    4.4076594286   -1.6318323279
 17         -5.4922931051   -1.4400314347    4.4076587894   -1.6318322927
 18         -5.4922939512   -1.4400317785    4.4076584583   -1.6318322760
 19         -5.4922943993   -1.4400319585    4.4076582865   -1.6318322681
 20         -5.4922946368   -1.4400320529    4.4076581972   -1.6318322644
 21         -5.4922947627   -1.4400321025    4.4076581507   -1.6318322627
 22         -5.4922948296   -1.4400321287    4.4076581265   -1.6318322619
Atom SCF converged after  22 iterations to a total energy of     -5.49229483

Determining parallel strategy ...
... using space-filling curve
... NGWF load balancing: max     64;  min     64;  average     64
... Projector load balancing: max    128;  min    128;  average    128
... done
Calculating Ewald energy ...
              Ewald: real-space energy =    9492.616425
        Ewald: reciprocal-space energy =       0.112306
         Ewald: (sum_charge)**2 Energy =   11225.826865
         Ewald: (sum_charge**2) Energy =     887.479538
                          Ewald Energy =   -2620.577672
Basis initialisation ...... NGWF spheres initialised
... Projector spheres initialised
... NGWF tight boxes initialised
... Projector tight boxes initialised
... Tight-boxes gathered
... NGWF basis size (local,global):     693524  27899680
... PAW projector initialisation
... done

============================= Charge Augmentation ==============================
                           Aug box size:   11 x  11 x  11
================================================================================

========================== Sparse matrix information ===========================
                        Overlap matrix filling:  44.38%
                        Density kernel filling: 100.00%
              NGWF-Proj overlap matrix filling:  12.19%
                    Aug Overlap matrix filling:  47.03%
                    Hamiltonian matrix filling:  47.03%
                  NGWF diagonal matrix filling:   0.16%
                             KS matrix filling: 100.00% 
                           KSKS matrix filling: 100.00% 
================================================================================

Sparse matrix initialisation ... done
NGWF initialisation ...... done
============ Calculation of NGWF S^-1 using Hotelling algorithm ================ 
         Iteration  |  Frobenius norm and Maximum abs value    (of I-S*S_n^-1)   
               1       0.49104329E+02     0.97650250E+00
               2       0.47907172E+02     0.95485925E+00
               3       0.46102758E+02     0.91616248E+00
               4       0.43750818E+02     0.85234363E+00
               5       0.40923754E+02     0.75756059E+00
               6       0.37610045E+02     0.68239198E+00
               7       0.34111051E+02     0.63353423E+00
               8       0.30760387E+02     0.59244323E+00
               9       0.27216715E+02     0.54858282E+00
              10       0.22762258E+02     0.48075197E+00
              11       0.16944971E+02     0.37267821E+00
              12       0.10170282E+02     0.22886934E+00
              13       0.41770771E+01     0.91867315E-01
              14       0.84556613E+00     0.16976543E-01
              15       0.42005662E-01     0.71766334E-03
              16       0.13705362E-03     0.17023954E-05
              17       0.22236773E-08     0.16609825E-10
              18       0.77904661E-13     0.45519144E-14
================================================================================
Calculating core density ...
================================= Core Density =================================
               Core den box size:   21 x  21 x  21
================================================================================
 ... done
Up spin density kernel initialisation ...... done

Writing density kernel to file "3.4344936_GO_manual_4x64graphite.dkn" ... done

>>> Optimising kernel for current NGWFs:

--------------------------- Ensemble-DFT optimisation --------------------------
Running ScaLAPACK on   40 processor(s).

--------------------------------------------------------------------------------
  Iter                              Commutator    Free_energy(A=E-TS)     DeltaA
#    0                          0.000039322646   -3655.74155943480855  -3.66E+03

Step                       =       0.381966011250
Energy                     =   -3655.741528102437
Entropy (-TS)              =      -0.000031332368
Free energy (A=E-TS)       =   -3655.741559434809
Est. 0K Energy 0.5*(E+A)   =   -3655.741543768623
Residual Non-orthogonality =       0.000000000000
Residual N_electrons       =      -0.000000000003

Spin          Integrated_Ne            Fermi_level     Delta_Fermi_level
   1      2560.000000000015         0.201288846882              2.01E-01

                           Spin 1          
     Orb      H-eigenvalues     Occupancies
       1 |    -0.5237944518    1.0000000000 | 
                          ------
    1276 |     0.1672752273    0.9999783536 | 
    1277 |     0.1678852397    0.9999737554 | 
    1278 |     0.1678997604    0.9999736348 | 
    1279 |     0.1683061103    0.9999700252 | 
    1280 |     0.1689265789    0.9999635377 | 
                 - Gap at zero temperature -
    1281 |     0.2362629308    0.0000159834 | 
    1282 |     0.2362754274    0.0000159205 | 
    1283 |     0.2363084436    0.0000157554 | 
    1284 |     0.2364916871    0.0000148696 | 
    1285 |     0.2365040609    0.0000148116 | 
                          ------
    2560 |     1.0353853154    0.0000000000 | 

                       |  Abs_value |  Threshold | Converged
     Delta_Free_energy |   3.66E+03 |   1.00E-06 |        No
     Delta_Energy      |   3.66E+03 |   1.00E-04 |        No
     Delta_Entropy     |   3.13E-05 |   1.00E-04 |       Yes
     Commutator        |   3.93E-05 |   1.00E-05 |        No
     Delta_Fermi_level |   2.01E-01 |   1.00E-03 |        No

  Line search of the free energy minimum:
  Step_type        Step             Free_energy   Predicted_free_energy
.   Initial    0.000000    -3655.74155943480855
.    Trial1    0.381966    -3655.74314869983300
.    Trial2    0.618034    -3655.74334150430832
. Quadratic    0.575473    -3655.74335101652741    -3655.74335130533018

--------------------------------------------------------------------------------
  Iter                              Commutator    Free_energy(A=E-TS)     DeltaA
#    1                          0.000021831826   -3655.74335101652741  -1.79E-03

Step                       =       0.575473400925
Energy                     =   -3655.743320719793
Entropy (-TS)              =      -0.000030296462
Free energy (A=E-TS)       =   -3655.743351016527
Est. 0K Energy 0.5*(E+A)   =   -3655.743335868160
Residual Non-orthogonality =       0.000000000000
Residual N_electrons       =      -0.000000000272

Spin          Integrated_Ne            Fermi_level     Delta_Fermi_level
   1      2560.000000001341         0.202617745331              1.33E-03

                           Spin 1          
     Orb      H-eigenvalues     Occupancies
       1 |    -0.5240594064    1.0000000000 | 
                          ------
    1276 |     0.1685756088    0.9999785477 | 
    1277 |     0.1690383003    0.9999751729 | 
    1278 |     0.1690481073    0.9999750959 | 
    1279 |     0.1696231199    0.9999701376 | 
    1280 |     0.1700915030    0.9999653776 | 
                 - Gap at zero temperature -
    1281 |     0.2376587672    0.0000156491 | 
    1282 |     0.2376709593    0.0000155890 | 
    1283 |     0.2377126021    0.0000153853 | 
    1284 |     0.2379180732    0.0000144188 | 
    1285 |     0.2379334893    0.0000143488 | 
                          ------
    2560 |     1.0372234360    0.0000000000 | 

                       |  Abs_value |  Threshold | Converged
     Delta_Free_energy |   1.79E-03 |   1.00E-06 |        No
     Delta_Energy      |   1.79E-03 |   1.00E-04 |        No
     Delta_Entropy     |   1.04E-06 |   1.00E-04 |       Yes
     Commutator        |   2.18E-05 |   1.00E-05 |        No
     Delta_Fermi_level |   1.33E-03 |   1.00E-03 |        No

  Line search of the free energy minimum:
  Step_type        Step             Free_energy   Predicted_free_energy
.   Initial    0.000000    -3655.74335101652741
.    Trial1    0.575473    -3655.74313281525156
.    Trial2    0.219811    -3655.74375731990176
. Quadratic    0.257467    -3655.74376607463728    -3655.74376620095063

--------------------------------------------------------------------------------
  Iter                              Commutator    Free_energy(A=E-TS)     DeltaA
#    2                          0.000012329345   -3655.74376607463728  -4.15E-04

Step                       =       0.257467225406
Energy                     =   -3655.743736011045
Entropy (-TS)              =      -0.000030063573
Free energy (A=E-TS)       =   -3655.743766074637
Est. 0K Energy 0.5*(E+A)   =   -3655.743751042841
Residual Non-orthogonality =       0.000000000000
Residual N_electrons       =      -0.000000000020

Spin          Integrated_Ne            Fermi_level     Delta_Fermi_level
   1      2560.000000000098         0.202860114892              2.42E-04

                           Spin 1          
     Orb      H-eigenvalues     Occupancies
       1 |    -0.5241148852    1.0000000000 | 
                          ------
    1276 |     0.1687664891    0.9999788937 | 
    1277 |     0.1692750051    0.9999752173 | 
    1278 |     0.1692895032    0.9999751036 | 
    1279 |     0.1698098013    0.9999706581 | 
    1280 |     0.1703286380    0.9999654348 | 
                 - Gap at zero temperature -
    1281 |     0.2379386174    0.0000154650 | 
    1282 |     0.2379555578    0.0000153825 | 
    1283 |     0.2379921093    0.0000152060 | 
    1284 |     0.2382085451    0.0000142015 | 
    1285 |     0.2382237770    0.0000141333 | 
                          ------
    2560 |     1.0375635766    0.0000000000 | 

                       |  Abs_value |  Threshold | Converged
     Delta_Free_energy |   4.15E-04 |   1.00E-06 |        No
     Delta_Energy      |   4.15E-04 |   1.00E-04 |        No
     Delta_Entropy     |   2.33E-07 |   1.00E-04 |       Yes
     Commutator        |   1.23E-05 |   1.00E-05 |        No
     Delta_Fermi_level |   2.42E-04 |   1.00E-03 |       Yes

  Line search of the free energy minimum:
  Step_type        Step             Free_energy   Predicted_free_energy
.   Initial    0.000000    -3655.74376607463728
.    Trial1    0.257467    -3655.74388946657109
.    Trial2    0.541090    -3655.74386060650113
. Quadratic    0.351896    -3655.74389901104951    -3655.74389904126383

--------------------------------------------------------------------------------
  Iter                              Commutator    Free_energy(A=E-TS)     DeltaA
#    3                          0.000008587323   -3655.74389901104951  -1.33E-04

Step                       =       0.351896318050
Energy                     =   -3655.743869175429
Entropy (-TS)              =      -0.000029835726
Free energy (A=E-TS)       =   -3655.743899011050
Est. 0K Energy 0.5*(E+A)   =   -3655.743884093239
Residual Non-orthogonality =       0.000000000000
Residual N_electrons       =       0.000000000105

Spin          Integrated_Ne            Fermi_level     Delta_Fermi_level
   1      2559.999999999481         0.203107779897              2.48E-04

                           Spin 1          
     Orb      H-eigenvalues     Occupancies
       1 |    -0.5241629722    1.0000000000 | 
                          ------
    1276 |     0.1689809283    0.9999791139 | 
    1277 |     0.1695029436    0.9999753712 | 
    1278 |     0.1695220434    0.9999752222 | 
    1279 |     0.1700218184    0.9999709865 | 
    1280 |     0.1705587336    0.9999656260 | 
                 - Gap at zero temperature -
    1281 |     0.2382134482    0.0000153329 | 
    1282 |     0.2382350422    0.0000152287 | 
    1283 |     0.2382679933    0.0000150711 | 
    1284 |     0.2384893888    0.0000140534 | 
    1285 |     0.2385044436    0.0000139868 | 
                          ------
    2560 |     1.0379277999    0.0000000000 | 

                       |  Abs_value |  Threshold | Converged
     Delta_Free_energy |   1.33E-04 |   1.00E-06 |        No
     Delta_Energy      |   1.33E-04 |   1.00E-04 |        No
     Delta_Entropy     |   2.28E-07 |   1.00E-04 |       Yes
     Commutator        |   8.59E-06 |   1.00E-05 |       Yes
     Delta_Fermi_level |   2.48E-04 |   1.00E-03 |       Yes

  Line search of the free energy minimum:
  Step_type        Step             Free_energy   Predicted_free_energy
.   Initial    0.000000    -3655.74389901104951
.    Trial1    0.351896    -3655.74395070644005
.    Trial2    0.599450    -3655.74385951664317
. Quadratic    0.261401    -3655.74395776631900    -3655.74395774582126

--------------------------------------------------------------------------------
  Iter                              Commutator    Free_energy(A=E-TS)     DeltaA
#    4                          0.000005770896   -3655.74395776631900  -5.88E-05

Step                       =       0.261400886400
Energy                     =   -3655.743928036984
[...]
 C   275 -- C   555       -0.10      5.37000
 C   274 -- C   554       -0.10      5.37000
 C   273 -- C   553       -0.10      5.37000
 C   272 -- C   552       -0.10      5.37000
 C   271 -- C   551       -0.10      5.37000
 C   270 -- C   550       -0.10      5.37000
 C   269 -- C   549       -0.10      5.37000
 C   268 -- C   548       -0.10      5.37000
 C   267 -- C   547       -0.10      5.37000
 C   266 -- C   546       -0.10      5.37000
 C   130 -- C   465       -0.10      5.37000
 C   129 -- C   464       -0.10      5.37000
 C   128 -- C   463       -0.10      5.37000
 C   127 -- C   462       -0.10      5.37000
 C   126 -- C   461       -0.10      5.37000
 C   240 -- C   525       -0.10      5.37000
 C   239 -- C   524       -0.10      5.37000
 C   238 -- C   523       -0.10      5.37000
 C   237 -- C   522       -0.10      5.37000
 C   236 -- C   521       -0.10      5.37000
 C    23 -- C   478       -0.10      5.37202
 C    49 -- C   469       -0.10      5.37202
 C    48 -- C   468       -0.10      5.37202
 C    47 -- C   467       -0.10      5.37202
 C    22 -- C   477       -0.10      5.37202
 C    46 -- C   466       -0.10      5.37202
 C    21 -- C   476       -0.10      5.37202
 C    25 -- C   480       -0.10      5.37202
 C    24 -- C   479       -0.10      5.37202
 C    50 -- C   470       -0.10      5.37202
 C    24 -- C   449       -0.10      5.37202
 C     6 -- C   416       -0.10      5.37202
 C    23 -- C   448       -0.10      5.37202
 C    22 -- C   447       -0.10      5.37202
 C    10 -- C   470       -0.10      5.37202
 C     5 -- C   450       -0.10      5.37202
 C    21 -- C   446       -0.10      5.37202
 C    10 -- C   420       -0.10      5.37202
 C     9 -- C   469       -0.10      5.37202
 C     9 -- C   419       -0.10      5.37202
 C     8 -- C   468       -0.10      5.37202
 C     4 -- C   449       -0.10      5.37202
 C     8 -- C   418       -0.10      5.37202
 C   285 -- C   580       -0.10      5.37202
 C   284 -- C   579       -0.10      5.37202
 C   283 -- C   578       -0.10      5.37202
 C   282 -- C   577       -0.10      5.37202
 C   281 -- C   576       -0.10      5.37202
 C     2 -- C   447       -0.10      5.37202
 C     7 -- C   467       -0.10      5.37202
 C   260 -- C   605       -0.10      5.37202
 C   259 -- C   604       -0.10      5.37202
 C   258 -- C   603       -0.10      5.37202
 C   257 -- C   602       -0.10      5.37202
 C   256 -- C   601       -0.10      5.37202
 C     7 -- C   417       -0.10      5.37202
 C     1 -- C   446       -0.10      5.37202
 C     6 -- C   466       -0.10      5.37202
 C    25 -- C   450       -0.10      5.37202
 C     3 -- C   448       -0.10      5.37202
 C   219 -- C   569       -0.10      5.37202
 C   218 -- C   568       -0.10      5.37202
 C   217 -- C   567       -0.10      5.37202
 C   216 -- C   566       -0.10      5.37202
 C   250 -- C   540       -0.10      5.37202
 C   249 -- C   539       -0.10      5.37202
 C   248 -- C   538       -0.10      5.37202
 C   247 -- C   537       -0.10      5.37202
 C   246 -- C   536       -0.10      5.37202
 C   220 -- C   570       -0.10      5.37202
 C   205 -- C   550       -0.10      5.37202
 C   204 -- C   549       -0.10      5.37202
 C   203 -- C   548       -0.10      5.37202
 C   202 -- C   547       -0.10      5.37202
 C   201 -- C   546       -0.10      5.37202
 C    95 -- C   365       -0.10      5.37202
 C    94 -- C   364       -0.10      5.37202
 C    93 -- C   363       -0.10      5.37202
 C    92 -- C   362       -0.10      5.37202
 C    91 -- C   361       -0.10      5.37202
 C    65 -- C   395       -0.10      5.37202
 C    64 -- C   394       -0.10      5.37202
 C    63 -- C   393       -0.10      5.37202
 C    30 -- C   355       -0.10      5.37202
 C    62 -- C   392       -0.10      5.37202
 C    61 -- C   391       -0.10      5.37202
 C    29 -- C   354       -0.10      5.37202
 C   260 -- C   550       -0.10      5.37202
 C   259 -- C   549       -0.10      5.37202
 C    28 -- C   353       -0.10      5.37202
 C   258 -- C   548       -0.10      5.37202
 C   257 -- C   547       -0.10      5.37202
 C   256 -- C   546       -0.10      5.37202
 C    27 -- C   352       -0.10      5.37202
 C    26 -- C   351       -0.10      5.37202
 C    55 -- C   335       -0.10      5.37202
 C    54 -- C   334       -0.10      5.37202
 C    53 -- C   333       -0.10      5.37202
 C   230 -- C   580       -0.10      5.37202
 C   230 -- C   525       -0.10      5.37202
 C   229 -- C   579       -0.10      5.37202
 C   229 -- C   524       -0.10      5.37202
 C   228 -- C   578       -0.10      5.37202
 C    52 -- C   332       -0.10      5.37202
 C   228 -- C   523       -0.10      5.37202
 C   227 -- C   577       -0.10      5.37202
 C   227 -- C   522       -0.10      5.37202
 C   226 -- C   576       -0.10      5.37202
 C   226 -- C   521       -0.10      5.37202
 C    51 -- C   331       -0.10      5.37202
 C   220 -- C   515       -0.10      5.37202
 C   219 -- C   514       -0.10      5.37202
 C   218 -- C   513       -0.10      5.37202
 C   217 -- C   512       -0.10      5.37202
 C   216 -- C   511       -0.10      5.37202
 C   195 -- C   540       -0.10      5.37202
 C   195 -- C   500       -0.10      5.37202
 C   194 -- C   539       -0.10      5.37202
 C   194 -- C   499       -0.10      5.37202
 C   193 -- C   538       -0.10      5.37202
 C   193 -- C   498       -0.10      5.37202
 C   192 -- C   537       -0.10      5.37202
 C   192 -- C   497       -0.10      5.37202
 C   191 -- C   536       -0.10      5.37202
 C   191 -- C   496       -0.10      5.37202
 C   180 -- C   515       -0.10      5.37202
 C   179 -- C   514       -0.10      5.37202
 C   178 -- C   513       -0.10      5.37202
 C   177 -- C   512       -0.10      5.37202
 C   176 -- C   511       -0.10      5.37202
 C   150 -- C   440       -0.10      5.37202
 C   149 -- C   439       -0.10      5.37202
 C   148 -- C   438       -0.10      5.37202
 C   147 -- C   437       -0.10      5.37202
 C   146 -- C   436       -0.10      5.37202
 C   135 -- C   460       -0.10      5.37202
 C   134 -- C   459       -0.10      5.37202
 C   133 -- C   458       -0.10      5.37202
 C   132 -- C   457       -0.10      5.37202
 C   131 -- C   456       -0.10      5.37202
 C    11 -- C   331       -0.10      5.37202
 C    95 -- C   425       -0.10      5.37202
 C    94 -- C   424       -0.10      5.37202
 C    93 -- C   423       -0.10      5.37202
 C    92 -- C   422       -0.10      5.37202
 C    91 -- C   421       -0.10      5.37202
 C    85 -- C   355       -0.10      5.37202
 C    40 -- C   365       -0.10      5.37202
 C    84 -- C   354       -0.10      5.37202
 C    83 -- C   353       -0.10      5.37202
 C    82 -- C   352       -0.10      5.37202
 C    39 -- C   364       -0.10      5.37202
 C    81 -- C   351       -0.10      5.37202
 C    38 -- C   363       -0.10      5.37202
 C    37 -- C   362       -0.10      5.37202
 C    36 -- C   361       -0.10      5.37202
 C    15 -- C   335       -0.10      5.37202
 C    65 -- C   345       -0.10      5.37202
 C    64 -- C   344       -0.10      5.37202
 C    63 -- C   343       -0.10      5.37202
 C    30 -- C   325       -0.10      5.37202
 C    62 -- C   342       -0.10      5.37202
 C    14 -- C   334       -0.10      5.37202
 C    61 -- C   341       -0.10      5.37202
 C    29 -- C   324       -0.10      5.37202
 C    28 -- C   323       -0.10      5.37202
 C    13 -- C   333       -0.10      5.37202
 C    27 -- C   322       -0.10      5.37202
 C   120 -- C   395       -0.10      5.37202
 C    55 -- C   385       -0.10      5.37202
 C   119 -- C   394       -0.10      5.37202
 C   118 -- C   393       -0.10      5.37202
 C   117 -- C   392       -0.10      5.37202
 C    54 -- C   384       -0.10      5.37202
 C    26 -- C   321       -0.10      5.37202
 C   116 -- C   391       -0.10      5.37202
 C    53 -- C   383       -0.10      5.37202
 C    12 -- C   332       -0.10      5.37202
 C    52 -- C   382       -0.10      5.37202
 C    51 -- C   381       -0.10      5.37202
 C   106 -- C   436       -0.10      5.37202
 C   106 -- C   376       -0.10      5.37202
 C    80 -- C   410       -0.10      5.37202
 C    79 -- C   409       -0.10      5.37202
 C    78 -- C   408       -0.10      5.37202
 C    77 -- C   407       -0.10      5.37202
 C    76 -- C   406       -0.10      5.37202
 C   135 -- C   410       -0.10      5.37202
 C   134 -- C   409       -0.10      5.37202
 C   133 -- C   408       -0.10      5.37202
 C   132 -- C   407       -0.10      5.37202
 C   131 -- C   406       -0.10      5.37202
 C   110 -- C   440       -0.10      5.37202
 C   110 -- C   380       -0.10      5.37202
 C   109 -- C   439       -0.10      5.37202
 C   109 -- C   379       -0.10      5.37202
 C   108 -- C   438       -0.10      5.37202
 C   108 -- C   378       -0.10      5.37202
 C   107 -- C   437       -0.10      5.37202
 C   107 -- C   377       -0.10      5.37202
 C   215 -- C   635       -0.10      5.38000
 C   214 -- C   634       -0.10      5.38000
 C   213 -- C   633       -0.10      5.38000
 C   212 -- C   632       -0.10      5.38000
 C   211 -- C   631       -0.10      5.38000
 C   190 -- C   620       -0.10      5.38000
 C   189 -- C   619       -0.10      5.38000
 C   188 -- C   618       -0.10      5.38000
 C   187 -- C   617       -0.10      5.38000
 C   186 -- C   616       -0.10      5.38000
 C   175 -- C   595       -0.10      5.38000
 C   174 -- C   594       -0.10      5.38000
 C   173 -- C   593       -0.10      5.38000
 C   172 -- C   592       -0.10      5.38000
 C   171 -- C   591       -0.10      5.38000
 C   245 -- C   640       -0.10      5.38000
 C   244 -- C   639       -0.10      5.38000
 C   243 -- C   638       -0.10      5.38000
 C   242 -- C   637       -0.10      5.38000
 C   241 -- C   636       -0.10      5.38000
==================================================


=================== Orbital energy and occupancy information ===================

      Total number of orbitals:    2560
        Occupancy sum (kernel):    1280.000000000
   Occupancy sum (eigenvalues):    1280.000000000
                 HOMO-LUMO gap:       0.064073241 Eh
                 Mid-gap level:       0.252190527 Eh

                        Orbital | Energy (Eh) | Occupancy
                            1    -0.473333264   1.0000000
                        .......   ...........   .........
                         1271     0.214734586   0.9999891
                         1272     0.214741820   0.9999891
                         1273     0.215206587   0.9999873
                         1274     0.215213824   0.9999873
                         1275     0.218667936   0.9999622
                         1276     0.218670749   0.9999622
                         1277     0.219129109   0.9999563
                         1278     0.219131947   0.9999563
                         1279     0.219701287   0.9999477
                         1280     0.220153907   0.9999396
                        ....... -- gap at 0K -- .........
                         1281     0.284227148   0.0000270
                         1282     0.284234797   0.0000269
                         1283     0.284482926   0.0000249
                         1284     0.284490632   0.0000248
                         1285     0.284763033   0.0000228
                         1286     0.284767999   0.0000228
                         1287     0.285032483   0.0000210
                         1288     0.285037648   0.0000209
                         1289     0.285197322   0.0000199
                         1290     0.285471493   0.0000183
                        .......   ...........   .........
                         2560     1.143545069   0.0000000

================================================================================

===================== Writing canonical molecular orbitals =====================
| Orbital  Energy (eV)  Norm     |
| HOMO      5.99069263  1.000000 | Writing "3.4344936_GO_manual_4x64graphite_HOMO.cube" ... done
Writing "3.4344936_GO_manual_4x64graphite_HOMO.dx" ... done
| LUMO      7.73421423  1.000000 | Writing "3.4344936_GO_manual_4x64graphite_LUMO.cube" ... done
Writing "3.4344936_GO_manual_4x64graphite_LUMO.dx" ... done
================================================================================
 
===================== Density of States (DOS) calculation ======================
Writing "3.4344936_GO_manual_4x64graphite_DOS.txt" ...  done
================================================================================
 
Writing bands to file "3.4344936_GO_manual_4x64graphite.val_bands" ... done
 
================ Projected Density of States (pDOS) calculation ================
 
Constructing AM resolved functions  ...... done
Writing NGWF plot files in formats: CUBE DX ...  done
 
Performing overlap integrals ...  done
 
Computing pDOS weights ...  done
 
All bands spilling parameter =   3.71 %
Occupancy-weighted spilling parameter =   0.91 %
 
 => Outputting data for OptaDOS <=
 
Writing pDOS weights to file "3.4344936_GO_manual_4x64graphite.val_pdos_bin" ... done
 
Writing band gradients to file "3.4344936_GO_manual_4x64graphite.val_dome_bin" ... done
 
Writing Castep output cell file to "3.4344936_GO_manual_4x64graphite-out.cell" ... done
 
 => Computing Gaussian smeared pDOS <= 
Writing "3.4344936_GO_manual_4x64graphite_PDOS.txt" ...  done
 
 => Computing Occupancy-weighted Gaussian smeared pDOS <= 
Writing "3.4344936_GO_manual_4x64graphite_occ_PDOS.txt" ...  done
  => Band centres: 
 S band centre of group 1:  -14.753288 eV
 P band centre of group 1:   -7.606366 eV
  Band centres done. <=
  => Integrated number of electrons in each AM band: 
 S num electrons of group 1:  577.306363
 P num electrons of group 1: 1959.445252
  Integrated number of electrons done. <=
================================================================================

------------------------------ TIMING INFORMATION ------------------------------
AVERAGE TIME:    3820.486s on     40 node(s)                                    
TOTAL TIME:      3820.486s on     40 node(s)                                    
================= AVERAGE TIMINGS FROM ALL NODES (CUMULATIVE) ==================
|| TAG                                    #calls    cpu time   %total  Gflops ||
|| work_imbalance                       :     1        0.00s   0.000%  ------ ||
|| paw_tcore_hartree_on_grid            :     1        0.00s   0.000%  ------ ||
|| paw_tcore_density                    :     1        0.01s   0.000%  ------ ||
|| paw_sphere_density_on_grid           :     1        0.01s   0.000%  ------ ||
|| sparse_set_to_garbage                :   171        0.03s   0.001%  ------ ||
|| paw_dij_hartree                      :   338        0.04s   0.001%  ------ ||
|| pseudo_make_structure_factor         :     1        0.05s   0.001%  ------ ||
|| basis_extract_function_from_box      :  1920        0.08s   0.002%  ------ ||
|| paw_species_calc_proj_prec_mat       :     1        0.12s   0.003%  ------ ||
|| paw_dataset_init                     :     1        0.15s   0.004%  ------ ||
|| density_init_guess_real              :     1        0.17s   0.004%  ------ ||
|| ngwfs_initialise_from_radial         :     2        0.67s   0.017%  ------ ||
|| restart_kernel_write                 :    16        0.81s   0.021%  ------ ||
|| sparse_init                          :     1        0.91s   0.024%  ------ ||
|| dense_normal_eigensolve              :     1        0.91s   0.024%  ------ ||
|| hartree_on_grid                      :   253        1.36s   0.036%  ------ ||
|| ewald_calculate_energy               :     1        2.64s   0.069%  ------ ||
|| projectors_init_fftbox_recip         :   151        2.90s   0.076%  ------ ||
|| fourier_apply_box_pair               :  2848        4.71s   0.123% 560.833 ||
|| basis_copy_function_to_box           : 24128        5.20s   0.136%  ------ ||
|| augmentation_screen_dij              :   258        5.51s   0.144%  ------ ||
|| sw_init                              :     1        6.73s   0.176%  ------ ||
|| sparse_embed_hotelling_invert_embed  :    29        8.01s   0.210%  ------ ||
|| ngwf_gradient_coeffs                 :    15       10.66s   0.279%  ------ ||
|| fourier_apply_cell_backward          :  7814       13.33s   0.349%  70.577 ||
|| cell_grid_extract_box_real           : 10156       15.13s   0.396%  ------ ||
|| fourier_apply_cell_forward           :  7309       16.24s   0.425%  54.191 ||
|| sparse_trace                         :  3054       17.56s   0.460%  ------ ||
|| cell_grid_deposit_box_real           : 32560       19.20s   0.503%  ------ ||
|| paw_dij_xc                           :   338       30.91s   0.809%  ------ ||
|| density_fftbox_deposit_to_cell       : 16192       38.69s   1.013%  ------ ||
|| aug_nonlocal_mat                     :   323       41.06s   1.075%  ------ ||
|| augmentation_density_on_grid         :   253       43.07s   1.127%  ------ ||
|| hamiltonian_energy_components        :     3       48.03s   1.257%  ------ ||
|| eigenstates_pdos                     :     1       53.38s   1.397%  ------ ||
|| eigenstates_calculate                :     1       57.59s   1.507%  ------ ||
|| function_ops_brappd_ketppd           :    60       58.67s   1.536%  ------ ||
|| nlxc_vdw_energy                      :   504       63.79s   1.670%  ------ ||
|| projectors_func_ovlp_box             :    30       66.35s   1.737%  ------ ||
|| xc_energy_potential                  :   252       72.04s   1.885%  ------ ||
|| dense_eigensolve                     :   220       97.94s   2.563%  ------ ||
|| integrals_kinetic                    :    29       99.15s   2.595%  ------ ||
|| properties_calculate                 :     1      104.05s   2.724%  ------ ||
|| potential_apply_to_ngwf_batch        :   316      121.81s   3.188%  ------ ||
|| sparse_product                       :  3117      121.96s   3.192%  ------ ||
|| restart_ngwfs_tightbox_output        :    14      184.90s   4.840%  ------ ||
|| basis_dot_function_with_box          : 7.997M     218.51s   5.719%  ------ ||
|| edft_diag_ngwf_ham                   :   219      231.96s   6.072%  ------ ||
|| fourier_apply_box                    : 76240      235.60s   6.167% 980.579 ||
|| projectors_gradient_batch            :    60      270.23s   7.073%  ------ ||
|| integrals_locpot_mat_els_batch       :   316      280.54s   7.343%  ------ ||
|| density_fftbox_interpolate_multiply  : 16192      313.82s   8.214%  ------ ||
|| projectors_grad_precond_batch        :    60      372.79s   9.758%  ------ ||
|| density_batch_interp_deposit         :  1012      389.03s  10.183%  ------ ||
|| integrals_locpot_dbl_grid            :    79      403.86s  10.571%  ------ ||
|| edft_apply_smearing_operator         :   219      461.17s  12.071%  ------ ||
|| basis_add_function_to_box            : 22.76M     601.70s  15.749%  ------ ||
|| ngwf_gradient_build_batch            :    60      688.17s  18.013%  ------ ||
|| density_batch_row_sums               :  1012      814.46s  21.318%  ------ ||
|| ngwf_gradient_batch                  :    60      927.84s  24.286%  ------ ||
|| ngwf_gradient_lnv                    :    15      962.23s  25.186%  ------ ||
|| density_on_dbl_grid                  :   253     1214.79s  31.797%  ------ ||
|| hamiltonian_lhxc_calculate           :   248     1307.36s  34.220%  ------ ||
|| edft_calculate                       :    15     2160.68s  56.555%  ------ ||
|| ngwf_cg_optimise                     :     1     3691.54s  96.625%  ------ ||
|| total_time                           :     1     3820.49s 100.000%  ------ ||
================================================================================
Overhead of generating timer report: 
- 0 ms averaging over threads,
- 5 ms ensuring consistency across MPI ranks,
- 0 ms printing in order.

Job completed: 26-02-2020 01:52 (-0000)

