 +---------------------------------------------------------------+
 |                                                               |
 |        ####### #     # ####### ####### ####### ######         |
 |        #     # ##    # #          #    #       #     #        |
 |        #     # # #   # #          #    #       #     #        |
 |        #     # #  #  # #####      #    #####   ######         |
 |        #     # #   # # #          #    #       #              |
 |        #     # #    ## #          #    #       #              |
 |        ####### #     # #######    #    ####### #              |
 |                                                               |
 |        Linear-Scaling Ab Initio Total Energy Program          |
 |                                                               |
 |          Release for academic collaborators of ODG            |
 |                                             Version 5.3.2.12  |
 |                                                               |
 +---------------------------------------------------------------+
 |                                                               |
 |  Authors:                                                     |
 |  Jacek Dziedzic, Peter D. Haynes, Nicholas D. M. Hine,        |
 |  Arash. A. Mostofi, Mike C. Payne and Chris-Kriton Skylaris   |
 |                                                               |
 |  Contributors:                                                |
 |  J. Aarons, L. Andrinopoulos, P. W. Avraam, R. A. Bell,       |
 |  A. Bhandari, G. A. Bramley, R. J. Charlton, S. J. Clark,     |
 |  R. J. Clements, G. C. Constantinescu, F. Corsetti,           |
 |  N. Corsini, O. Dieguez, S. M. M. Dubois, K. K. B. Duff,      |
 |  J. M. Escartin, A. Greco, H. Helal, Q. O. Hill, L. P. Lee,   |
 |  J.-H. Li, E. B. Linscott, G. Moynihan, D. D. O`Regan,        |
 |  O. K. Okan, M. J. S. Phipps, C. J. Pickard,                  |
 |  J. C. A. Prentice, M. I. J. Probert, L. E. Ratcliff,         |
 |  M. Robinson, A. Ruiz Serrano, J. S. Spencer, E. W. Tait,     |
 |  G. Teobaldi, D. Turban, V. Vitale, K. A. Wilkinson,          |
 |  C. Weber, J. C. Womack, N. Yeung and T. J. Zuehlsdorff       |
 |                                                               |
 |                                   Copyright (c) 2004-2020     |
 |                                                               |
 |  Please cite:                                                 |
 |  "Introducing ONETEP: Linear-scaling density functional       |
 |   simulations on parallel computers".                         |
 |   C.-K. Skylaris, P. D. Haynes, A. A. Mostofi, M. C. Payne.   |
 |   J. Chem. Phys. 122 084119 (2005).                           |
 |                                                               |
 |          in all publications arising from your use of ONETEP. |
 |                                                               |
 +---------------------------------------------------------------+
 |                                                               |
 |   ONETEP is based on developments described in the following  |
 |   publications:                                               |
 |                                                               |
 |  "Nonorthogonal generalized Wannier function pseudopotential  |
 |   plane-wave method".                                         |
 |   C.-K. Skylaris, A. A. Mostofi, P. D. Haynes, O. Dieguez,    |
 |   M. C. Payne.                                                |
 |   Phys. Rev. B 66 035119 (2002).                              |
 |                                                               |
 |  "Preconditioned iterative minimization for linear-scaling    |
 |   electronic structure calculations".                         |
 |   A. A. Mostofi, P. D. Haynes, C.-K. Skylaris, M. C. Payne.   |
 |   J. Chem. Phys. 119(17), pp.8842-8848 (2003).                |
 |                                                               |
 |  "Total-energy calculations on a real space grid with         |
 |   localized functions and a plane-wave basis".                |
 |   A. A. Mostofi, C.-K. Skylaris, P. D. Haynes, M. C. Payne.   |
 |   Comput. Phys. Commun. 147, pp.788-802 (2002).               |
 |                                                               |
 |  "Accurate kinetic energy evaluation in electronic structure  |
 |   calculations with localized functions on real space grids"  |
 |   C.-K. Skylaris, A. A. Mostofi, P. D. Haynes, C. J. Pickard, |
 |   M. C. Payne.                                                |
 |   Comput. Phys. Commun. 140, pp.315-322 (2001).               |
 |                                                               |
 |  "Accurate ionic forces and geometry optimization in linear-  |
 |   scaling density-functional theory with local orbitals"      |
 |   N. D. M. Hine, M. Robinson, P. D. Haynes, C.-K. Skylaris,   |
 |   M. C. Payne, and A. A. Mostofi.                             |
 |   Phys. Rev. B 83 195102 (2011).                              |
 |                                                               |
 +---------------------------------------------------------------+

Job started: 26-02-2020 00:51 (-0000)
 
Reading parameters from file "3.4613248_GO_manual_4x64graphite.dat" ...

WARNING: "cutoff_energy" not specified, but "psinc_spacing" specified.
         Using the latter to set the KE cutoff energy to  732.32021eV,
         thus *overriding* the default.

... done

If your calculation crashes here, before "Checking processes and threads..."
is displayed, then your stack size is insufficient.
If so, use "ulimit -s unlimited" at runtime.
You can disable this check with "check_stack_size F".

Checking processes and threads...
   Determining the default number of threads...
      No default threads set at compilation time: defaulting to 1.
      OpenMP library call suggests 4 threads.
      Hybrid MPI-OpenMP compilation detected.
      Number of MPI processes > 1.
      OMP_NUM_THREADS environment variable present and
      its value matches the one obtained from the OpenMP library call.
      Using this value as default.
      Default threads: 4
      Default applies to threads_max and threads_num_fftboxes.
      Settings in the input file override this default.
   ... done

   Running with 40 MPI processes.
   There are 10 MPI processes running on the same node as the root process.
   Each MPI process is using: 
               1 threads for simulation cell FFTs.
               1 threads for parallel FFT box operations.
               4 threads for loops over batched FFT box operations.
               4 threads in other parallel regions.
... done

Basic input checks...
Resetting ngwf_cg_rotate to TRUE for EDFT calculations
... done

Reading geometry and species blocks from file "3.4613248_GO_manual_4x64graphite.dat" ...
    
  PSINC grid spacing along a1 set to   0.511215680000a0 from input file.
  PSINC grid spacing along a2 set to   0.531284090000a0 from input file.
  PSINC grid spacing along a3 set to   0.507051880000a0 from input file.
  Number of PPD points along a3 set to 1.  This is 
  the default value, it may have been provided also in the input file.
... done
 Writing xyz coordinates to file "3.4613248_GO_manual_4x64graphite.xyz" ... done


--------------------------------------------------------------------------------
---------------------------------- INPUT FILE ----------------------------------
--------------------------------------------------------------------------------

task : singlepoint                                                              
do_properties : true                                                            
dx_format T                                                                     
edft T                                                                          
output_detail VERBOSE                                                           
write_xyz T                                                                     
xc_functional VDWDF                                                             
PSINC_SPACING 0.51121568 0.53128409 0.50705188                                  
paw T                                                                           
pdos_max_l = 2                                                                  
dos_smear  0.1 eV                                                               
popn_calculate T                                                                
PDOS_PSEUDOATOMIC T                                                             
PDOS_REDUCE_SWS F                                                               
PDOS_CONSTRUCT_BASIS F                                                          
PDOS_LOWDIN T                                                                   
PDOS_ORTH_ATOM_BLOCKS F                                                         
PDOS_LCAO_OPTIMIZE F                                                            
pdos_optados_output T                                                           
homo_plot 0                                                                     
lumo_plot 0                                                                     
homo_dens_plot -1                                                               
lumo_dens_plot -1                                                               
%BLOCK SPECIES                                                                  
C C 6 4 9.0                                                                     
%ENDBLOCK SPECIES                                                               
%BLOCK SPECIES_POT                                                              
C "~/pp/paw/c_pbe_abinit.paw"                                                   
%ENDBLOCK SPECIES_POT                                                           
%BLOCK SPECIES_ATOMIC_SET                                                       
C "SOLVE conf=2s2 2p2"                                                          
%ENDBLOCK SPECIES_ATOMIC_SET                                                    
%BLOCK LATTICE_CART                                                             
32.21  0.00  0.00                                                               
0.00 18.59  0.00                                                                
0.00  0.00 65.41                                                                
%ENDBLOCK LATTICE_CART                                                          
%BLOCK POSITIONS_ABS                                                            
C  0.00  0.00  3.27                                                             
C  0.00  0.00 16.35                                                             
C  0.00  0.00 29.43                                                             
C  0.00  0.00 42.52                                                             
C  0.00  0.00 55.60                                                             
C  0.00  4.65  3.27                                                             
C  0.00  4.65 16.35                                                             
C  0.00  4.65 29.43                                                             
C  0.00  4.65 42.52                                                             
C  0.00  4.65 55.60                                                             
C  4.03  2.32  3.27                                                             
C  4.03  2.32 16.35                                                             
C  4.03  2.32 29.43                                                             
C  4.03  2.32 42.52                                                             
C  4.03  2.32 55.60                                                             
C  8.05  0.00  3.27                                                             
C  8.05  0.00 16.35                                                             
C  8.05  0.00 29.43                                                             
C  8.05  0.00 42.52                                                             
C  8.05  0.00 55.60                                                             
C  0.00  9.30  3.27                                                             
C  0.00  9.30 16.35                                                             
C  0.00  9.30 29.43                                                             
C  0.00  9.30 42.52                                                             
C  0.00  9.30 55.60                                                             
C  4.03  6.97  3.27                                                             
C  4.03  6.97 16.35                                                             
C  4.03  6.97 29.43                                                             
C  4.03  6.97 42.52                                                             
C  4.03  6.97 55.60                                                             
C  8.05  4.65  3.27                                                             
C  8.05  4.65 16.35                                                             
C  8.05  4.65 29.43                                                             
C  8.05  4.65 42.52                                                             
C  8.05  4.65 55.60                                                             
C 12.08  2.32  3.27                                                             
C 12.08  2.32 16.35                                                             
C 12.08  2.32 29.43                                                             
C 12.08  2.32 42.52                                                             
C 12.08  2.32 55.60                                                             
C 16.10  0.00  3.27                                                             
C 16.10  0.00 16.35                                                             
C 16.10  0.00 29.43                                                             
C 16.10  0.00 42.52                                                             
C 16.10  0.00 55.60                                                             
C  0.00 13.95  3.27                                                             
C  0.00 13.95 16.35                                                             
C  0.00 13.95 29.43                                                             
C  0.00 13.95 42.52                                                             
C  0.00 13.95 55.60                                                             
C  4.03 11.62  3.27                                                             
C  4.03 11.62 16.35                                                             
C  4.03 11.62 29.43                                                             
C  4.03 11.62 42.52                                                             
C  4.03 11.62 55.60                                                             
C  8.05  9.30  3.27                                                             
C  8.05  9.30 16.35                                                             
C  8.05  9.30 29.43                                                             
C  8.05  9.30 42.52                                                             
C  8.05  9.30 55.60                                                             
C 12.08  6.97  3.27                                                             
C 12.08  6.97 16.35                                                             
C 12.08  6.97 29.43                                                             
C 12.08  6.97 42.52                                                             
C 12.08  6.97 55.60                                                             
C 16.10  4.65  3.27                                                             
C 16.10  4.65 16.35                                                             
C 16.10  4.65 29.43                                                             
C 16.10  4.65 42.52                                                             
C 16.10  4.65 55.60                                                             
C 20.13  2.32  3.27                                                             
C 20.13  2.32 16.35                                                             
C 20.13  2.32 29.43                                                             
C 20.13  2.32 42.52                                                             
C 20.13  2.32 55.60                                                             
C 24.16  0.00  3.27                                                             
C 24.16  0.00 16.35                                                             
C 24.16  0.00 29.43                                                             
C 24.16  0.00 42.52                                                             
C 24.16  0.00 55.60                                                             
C  4.03 16.27  3.27                                                             
C  4.03 16.27 16.35                                                             
C  4.03 16.27 29.43                                                             
C  4.03 16.27 42.52                                                             
C  4.03 16.27 55.60                                                             
C  8.05 13.95  3.27                                                             
C  8.05 13.95 16.35                                                             
C  8.05 13.95 29.43                                                             
C  8.05 13.95 42.52                                                             
C  8.05 13.95 55.60                                                             
C 12.08 11.62  3.27                                                             
C 12.08 11.62 16.35                                                             
C 12.08 11.62 29.43                                                             
C 12.08 11.62 42.52                                                             
C 12.08 11.62 55.60                                                             
C 16.10  9.30  3.27                                                             
C 16.10  9.30 16.35                                                             
C 16.10  9.30 29.43                                                             
C 16.10  9.30 42.52                                                             
C 16.10  9.30 55.60                                                             
C 20.13  6.97  3.27                                                             
C 20.13  6.97 16.35                                                             
C 20.13  6.97 29.43                                                             
C 20.13  6.97 42.52                                                             
C 20.13  6.97 55.60                                                             
C 24.16  4.65  3.27                                                             
C 24.16  4.65 16.35                                                             
C 24.16  4.65 29.43                                                             
C 24.16  4.65 42.52                                                             
C 24.16  4.65 55.60                                                             
C 28.18  2.32  3.27                                                             
C 28.18  2.32 16.35                                                             
C 28.18  2.32 29.43                                                             
C 28.18  2.32 42.52                                                             
C 28.18  2.32 55.60                                                             
C 12.08 16.27  3.27                                                             
C 12.08 16.27 16.35                                                             
C 12.08 16.27 29.43                                                             
C 12.08 16.27 42.52                                                             
C 12.08 16.27 55.60                                                             
C 16.10 13.95  3.27                                                             
C 16.10 13.95 16.35                                                             
C 16.10 13.95 29.43                                                             
C 16.10 13.95 42.52                                                             
C 16.10 13.95 55.60                                                             
C 20.13 11.62  3.27                                                             
C 20.13 11.62 16.35                                                             
C 20.13 11.62 29.43                                                             
C 20.13 11.62 42.52                                                             
C 20.13 11.62 55.60                                                             
C 24.16  9.30  3.27                                                             
C 24.16  9.30 16.35                                                             
C 24.16  9.30 29.43                                                             
C 24.16  9.30 42.52                                                             
C 24.16  9.30 55.60                                                             
C 28.18  6.97  3.27                                                             
C 28.18  6.97 16.35                                                             
C 28.18  6.97 29.43                                                             
C 28.18  6.97 42.52                                                             
C 28.18  6.97 55.60                                                             
C 20.13 16.27  3.27                                                             
C 20.13 16.27 16.35                                                             
C 20.13 16.27 29.43                                                             
C 20.13 16.27 42.52                                                             
C 20.13 16.27 55.60                                                             
C 24.16 13.95  3.27                                                             
C 24.16 13.95 16.35                                                             
C 24.16 13.95 29.43                                                             
C 24.16 13.95 42.52                                                             
C 24.16 13.95 55.60                                                             
C 28.18 11.62  3.27                                                             
C 28.18 11.62 16.35                                                             
C 28.18 11.62 29.43                                                             
C 28.18 11.62 42.52                                                             
C 28.18 11.62 55.60                                                             
C 28.18 16.27  3.27                                                             
C 28.18 16.27 16.35                                                             
C 28.18 16.27 29.43                                                             
C 28.18 16.27 42.52                                                             
C 28.18 16.27 55.60                                                             
C  0.00  0.00  9.81                                                             
C  0.00  0.00 22.89                                                             
C  0.00  0.00 35.98                                                             
C  0.00  0.00 49.06                                                             
C  0.00  0.00 62.14                                                             
C  0.00  4.65  9.81                                                             
C  0.00  4.65 22.89                                                             
C  0.00  4.65 35.98                                                             
C  0.00  4.65 49.06                                                             
C  0.00  4.65 62.14                                                             
C  4.03  2.32  9.81                                                             
C  4.03  2.32 22.89                                                             
C  4.03  2.32 35.98                                                             
C  4.03  2.32 49.06                                                             
C  4.03  2.32 62.14                                                             
C  8.05  0.00  9.81                                                             
C  8.05  0.00 22.89                                                             
C  8.05  0.00 35.98                                                             
C  8.05  0.00 49.06                                                             
C  8.05  0.00 62.14                                                             
C  0.00  9.30  9.81                                                             
C  0.00  9.30 22.89                                                             
C  0.00  9.30 35.98                                                             
C  0.00  9.30 49.06                                                             
C  0.00  9.30 62.14                                                             
C  4.03  6.97  9.81                                                             
C  4.03  6.97 22.89                                                             
C  4.03  6.97 35.98                                                             
C  4.03  6.97 49.06                                                             
C  4.03  6.97 62.14                                                             
C  8.05  4.65  9.81                                                             
C  8.05  4.65 22.89                                                             
C  8.05  4.65 35.98                                                             
C  8.05  4.65 49.06                                                             
C  8.05  4.65 62.14                                                             
C 12.08  2.32  9.81                                                             
C 12.08  2.32 22.89                                                             
C 12.08  2.32 35.98                                                             
C 12.08  2.32 49.06                                                             
C 12.08  2.32 62.14                                                             
C 16.10  0.00  9.81                                                             
C 16.10  0.00 22.89                                                             
C 16.10  0.00 35.98                                                             
C 16.10  0.00 49.06                                                             
C 16.10  0.00 62.14                                                             
C  0.00 13.95  9.81                                                             
C  0.00 13.95 22.89                                                             
C  0.00 13.95 35.98                                                             
C  0.00 13.95 49.06                                                             
C  0.00 13.95 62.14                                                             
C  4.03 11.62  9.81                                                             
C  4.03 11.62 22.89                                                             
C  4.03 11.62 35.98                                                             
C  4.03 11.62 49.06                                                             
C  4.03 11.62 62.14                                                             
C  8.05  9.30  9.81                                                             
C  8.05  9.30 22.89                                                             
C  8.05  9.30 35.98                                                             
C  8.05  9.30 49.06                                                             
C  8.05  9.30 62.14                                                             
C 12.08  6.97  9.81                                                             
C 12.08  6.97 22.89                                                             
C 12.08  6.97 35.98                                                             
C 12.08  6.97 49.06                                                             
C 12.08  6.97 62.14                                                             
C 16.10  4.65  9.81                                                             
C 16.10  4.65 22.89                                                             
C 16.10  4.65 35.98                                                             
C 16.10  4.65 49.06                                                             
C 16.10  4.65 62.14                                                             
C 20.13  2.32  9.81                                                             
C 20.13  2.32 22.89                                                             
C 20.13  2.32 35.98                                                             
C 20.13  2.32 49.06                                                             
C 20.13  2.32 62.14                                                             
C 24.16  0.00  9.81                                                             
C 24.16  0.00 22.89                                                             
C 24.16  0.00 35.98                                                             
C 24.16  0.00 49.06                                                             
C 24.16  0.00 62.14                                                             
C  4.03 16.27  9.81                                                             
C  4.03 16.27 22.89                                                             
C  4.03 16.27 35.98                                                             
C  4.03 16.27 49.06                                                             
C  4.03 16.27 62.14                                                             
C  8.05 13.95  9.81                                                             
C  8.05 13.95 22.89                                                             
C  8.05 13.95 35.98                                                             
C  8.05 13.95 49.06                                                             
C  8.05 13.95 62.14                                                             
C 12.08 11.62  9.81                                                             
C 12.08 11.62 22.89                                                             
C 12.08 11.62 35.98                                                             
C 12.08 11.62 49.06                                                             
C 12.08 11.62 62.14                                                             
C 16.10  9.30  9.81                                                             
C 16.10  9.30 22.89                                                             
C 16.10  9.30 35.98                                                             
C 16.10  9.30 49.06                                                             
C 16.10  9.30 62.14                                                             
C 20.13  6.97  9.81                                                             
C 20.13  6.97 22.89                                                             
C 20.13  6.97 35.98                                                             
C 20.13  6.97 49.06                                                             
C 20.13  6.97 62.14                                                             
C 24.16  4.65  9.81                                                             
C 24.16  4.65 22.89                                                             
C 24.16  4.65 35.98                                                             
C 24.16  4.65 49.06                                                             
C 24.16  4.65 62.14                                                             
C 28.18  2.32  9.81                                                             
C 28.18  2.32 22.89                                                             
C 28.18  2.32 35.98                                                             
C 28.18  2.32 49.06                                                             
C 28.18  2.32 62.14                                                             
C 12.08 16.27  9.81                                                             
C 12.08 16.27 22.89                                                             
C 12.08 16.27 35.98                                                             
C 12.08 16.27 49.06                                                             
C 12.08 16.27 62.14                                                             
C 16.10 13.95  9.81                                                             
C 16.10 13.95 22.89                                                             
C 16.10 13.95 35.98                                                             
C 16.10 13.95 49.06                                                             
C 16.10 13.95 62.14                                                             
C 20.13 11.62  9.81                                                             
C 20.13 11.62 22.89                                                             
C 20.13 11.62 35.98                                                             
C 20.13 11.62 49.06                                                             
C 20.13 11.62 62.14                                                             
C 24.16  9.30  9.81                                                             
C 24.16  9.30 22.89                                                             
C 24.16  9.30 35.98                                                             
C 24.16  9.30 49.06                                                             
C 24.16  9.30 62.14                                                             
C 28.18  6.97  9.81                                                             
C 28.18  6.97 22.89                                                             
C 28.18  6.97 35.98                                                             
C 28.18  6.97 49.06                                                             
C 28.18  6.97 62.14                                                             
C 20.13 16.27  9.81                                                             
C 20.13 16.27 22.89                                                             
C 20.13 16.27 35.98                                                             
C 20.13 16.27 49.06                                                             
C 20.13 16.27 62.14                                                             
C 24.16 13.95  9.81                                                             
C 24.16 13.95 22.89                                                             
C 24.16 13.95 35.98                                                             
C 24.16 13.95 49.06                                                             
C 24.16 13.95 62.14                                                             
C 28.18 11.62  9.81                                                             
C 28.18 11.62 22.89                                                             
C 28.18 11.62 35.98                                                             
C 28.18 11.62 49.06                                                             
C 28.18 11.62 62.14                                                             
C 28.18 16.27  9.81                                                             
C 28.18 16.27 22.89                                                             
C 28.18 16.27 35.98                                                             
C 28.18 16.27 49.06                                                             
C 28.18 16.27 62.14                                                             
C  1.34  2.32  3.27                                                             
C  1.34  2.32 16.35                                                             
C  1.34  2.32 29.43                                                             
C  1.34  2.32 42.52                                                             
C  1.34  2.32 55.60                                                             
C  5.37  0.00  3.27                                                             
C  5.37  0.00 16.35                                                             
C  5.37  0.00 29.43                                                             
C  5.37  0.00 42.52                                                             
C  5.37  0.00 55.60                                                             
C  1.34  6.97  3.27                                                             
C  1.34  6.97 16.35                                                             
C  1.34  6.97 29.43                                                             
C  1.34  6.97 42.52                                                             
C  1.34  6.97 55.60                                                             
C  5.37  4.65  3.27                                                             
C  5.37  4.65 16.35                                                             
C  5.37  4.65 29.43                                                             
C  5.37  4.65 42.52                                                             
C  5.37  4.65 55.60                                                             
C  9.39  2.32  3.27                                                             
C  9.39  2.32 16.35                                                             
C  9.39  2.32 29.43                                                             
C  9.39  2.32 42.52                                                             
C  9.39  2.32 55.60                                                             
C 13.42  0.00  3.27                                                             
C 13.42  0.00 16.35                                                             
C 13.42  0.00 29.43                                                             
C 13.42  0.00 42.52                                                             
C 13.42  0.00 55.60                                                             
C  1.34 11.62  3.27                                                             
C  1.34 11.62 16.35                                                             
C  1.34 11.62 29.43                                                             
C  1.34 11.62 42.52                                                             
C  1.34 11.62 55.60                                                             
C  5.37  9.30  3.27                                                             
C  5.37  9.30 16.35                                                             
C  5.37  9.30 29.43                                                             
C  5.37  9.30 42.52                                                             
C  5.37  9.30 55.60                                                             
C  9.39  6.97  3.27                                                             
C  9.39  6.97 16.35                                                             
C  9.39  6.97 29.43                                                             
C  9.39  6.97 42.52                                                             
C  9.39  6.97 55.60                                                             
C 13.42  4.65  3.27                                                             
C 13.42  4.65 16.35                                                             
C 13.42  4.65 29.43                                                             
C 13.42  4.65 42.52                                                             
C 13.42  4.65 55.60                                                             
C 17.45  2.32  3.27                                                             
C 17.45  2.32 16.35                                                             
C 17.45  2.32 29.43                                                             
C 17.45  2.32 42.52                                                             
C 17.45  2.32 55.60                                                             
C 21.47  0.00  3.27                                                             
C 21.47  0.00 16.35                                                             
C 21.47  0.00 29.43                                                             
C 21.47  0.00 42.52                                                             
C 21.47  0.00 55.60                                                             
C  1.34 16.27  3.27                                                             
C  1.34 16.27 16.35                                                             
C  1.34 16.27 29.43                                                             
C  1.34 16.27 42.52                                                             
C  1.34 16.27 55.60                                                             
C  5.37 13.95  3.27                                                             
C  5.37 13.95 16.35                                                             
C  5.37 13.95 29.43                                                             
C  5.37 13.95 42.52                                                             
C  5.37 13.95 55.60                                                             
C  9.39 11.62  3.27                                                             
C  9.39 11.62 16.35                                                             
C  9.39 11.62 29.43                                                             
C  9.39 11.62 42.52                                                             
C  9.39 11.62 55.60                                                             
C 13.42  9.30  3.27                                                             
C 13.42  9.30 16.35                                                             
C 13.42  9.30 29.43                                                             
C 13.42  9.30 42.52                                                             
C 13.42  9.30 55.60                                                             
C 17.45  6.97  3.27                                                             
C 17.45  6.97 16.35                                                             
C 17.45  6.97 29.43                                                             
C 17.45  6.97 42.52                                                             
C 17.45  6.97 55.60                                                             
C 21.47  4.65  3.27                                                             
C 21.47  4.65 16.35                                                             
C 21.47  4.65 29.43                                                             
C 21.47  4.65 42.52                                                             
C 21.47  4.65 55.60                                                             
C 25.50  2.32  3.27                                                             
C 25.50  2.32 16.35                                                             
C 25.50  2.32 29.43                                                             
C 25.50  2.32 42.52                                                             
C 25.50  2.32 55.60                                                             
C 29.52  0.00  3.27                                                             
C 29.52  0.00 16.35                                                             
C 29.52  0.00 29.43                                                             
C 29.52  0.00 42.52                                                             
C 29.52  0.00 55.60                                                             
C  9.39 16.27  3.27                                                             
C  9.39 16.27 16.35                                                             
C  9.39 16.27 29.43                                                             
C  9.39 16.27 42.52                                                             
C  9.39 16.27 55.60                                                             
C 13.42 13.95  3.27                                                             
C 13.42 13.95 16.35                                                             
C 13.42 13.95 29.43                                                             
C 13.42 13.95 42.52                                                             
C 13.42 13.95 55.60                                                             
C 17.45 11.62  3.27                                                             
C 17.45 11.62 16.35                                                             
C 17.45 11.62 29.43                                                             
C 17.45 11.62 42.52                                                             
C 17.45 11.62 55.60                                                             
C 21.47  9.30  3.27                                                             
C 21.47  9.30 16.35                                                             
C 21.47  9.30 29.43                                                             
C 21.47  9.30 42.52                                                             
C 21.47  9.30 55.60                                                             
C 25.50  6.97  3.27                                                             
C 25.50  6.97 16.35                                                             
C 25.50  6.97 29.43                                                             
C 25.50  6.97 42.52                                                             
C 25.50  6.97 55.60                                                             
C 29.52  4.65  3.27                                                             
C 29.52  4.65 16.35                                                             
C 29.52  4.65 29.43                                                             
C 29.52  4.65 42.52                                                             
C 29.52  4.65 55.60                                                             
C 17.45 16.27  3.27                                                             
C 17.45 16.27 16.35                                                             
C 17.45 16.27 29.43                                                             
C 17.45 16.27 42.52                                                             
C 17.45 16.27 55.60                                                             
C 21.47 13.95  3.27                                                             
C 21.47 13.95 16.35                                                             
C 21.47 13.95 29.43                                                             
C 21.47 13.95 42.52                                                             
C 21.47 13.95 55.60                                                             
C 25.50 11.62  3.27                                                             
C 25.50 11.62 16.35                                                             
C 25.50 11.62 29.43                                                             
C 25.50 11.62 42.52                                                             
C 25.50 11.62 55.60                                                             
C 29.52  9.30  3.27                                                             
C 29.52  9.30 16.35                                                             
C 29.52  9.30 29.43                                                             
C 29.52  9.30 42.52                                                             
C 29.52  9.30 55.60                                                             
C 25.50 16.27  3.27                                                             
C 25.50 16.27 16.35                                                             
C 25.50 16.27 29.43                                                             
C 25.50 16.27 42.52                                                             
C 25.50 16.27 55.60                                                             
C 29.52 13.95  3.27                                                             
C 29.52 13.95 16.35                                                             
C 29.52 13.95 29.43                                                             
C 29.52 13.95 42.52                                                             
C 29.52 13.95 55.60                                                             
C  2.68  0.00  9.81                                                             
C  2.68  0.00 22.89                                                             
C  2.68  0.00 35.98                                                             
C  2.68  0.00 49.06                                                             
C  2.68  0.00 62.14                                                             
C  2.68  4.65  9.81                                                             
C  2.68  4.65 22.89                                                             
C  2.68  4.65 35.98                                                             
C  2.68  4.65 49.06                                                             
C  2.68  4.65 62.14                                                             
C  6.71  2.32  9.81                                                             
C  6.71  2.32 22.89                                                             
C  6.71  2.32 35.98                                                             
C  6.71  2.32 49.06                                                             
C  6.71  2.32 62.14                                                             
C 10.74  0.00  9.81                                                             
C 10.74  0.00 22.89                                                             
C 10.74  0.00 35.98                                                             
C 10.74  0.00 49.06                                                             
C 10.74  0.00 62.14                                                             
C  2.68  9.30  9.81                                                             
C  2.68  9.30 22.89                                                             
C  2.68  9.30 35.98                                                             
C  2.68  9.30 49.06                                                             
C  2.68  9.30 62.14                                                             
C  6.71  6.97  9.81                                                             
C  6.71  6.97 22.89                                                             
C  6.71  6.97 35.98                                                             
C  6.71  6.97 49.06                                                             
C  6.71  6.97 62.14                                                             
C 10.74  4.65  9.81                                                             
C 10.74  4.65 22.89                                                             
C 10.74  4.65 35.98                                                             
C 10.74  4.65 49.06                                                             
C 10.74  4.65 62.14                                                             
C 14.76  2.32  9.81                                                             
C 14.76  2.32 22.89                                                             
C 14.76  2.32 35.98                                                             
C 14.76  2.32 49.06                                                             
C 14.76  2.32 62.14                                                             
C 18.79  0.00  9.81                                                             
C 18.79  0.00 22.89                                                             
C 18.79  0.00 35.98                                                             
C 18.79  0.00 49.06                                                             
C 18.79  0.00 62.14                                                             
C  2.68 13.95  9.81                                                             
C  2.68 13.95 22.89                                                             
C  2.68 13.95 35.98                                                             
C  2.68 13.95 49.06                                                             
C  2.68 13.95 62.14                                                             
C  6.71 11.62  9.81                                                             
C  6.71 11.62 22.89                                                             
C  6.71 11.62 35.98                                                             
C  6.71 11.62 49.06                                                             
C  6.71 11.62 62.14                                                             
C 10.74  9.30  9.81                                                             
C 10.74  9.30 22.89                                                             
C 10.74  9.30 35.98                                                             
C 10.74  9.30 49.06                                                             
C 10.74  9.30 62.14                                                             
C 14.76  6.97  9.81                                                             
C 14.76  6.97 22.89                                                             
C 14.76  6.97 35.98                                                             
C 14.76  6.97 49.06                                                             
C 14.76  6.97 62.14                                                             
C 18.79  4.65  9.81                                                             
C 18.79  4.65 22.89                                                             
C 18.79  4.65 35.98                                                             
C 18.79  4.65 49.06                                                             
C 18.79  4.65 62.14                                                             
C 22.81  2.32  9.81                                                             
C 22.81  2.32 22.89                                                             
C 22.81  2.32 35.98                                                             
C 22.81  2.32 49.06                                                             
C 22.81  2.32 62.14                                                             
C 26.84  0.00  9.81                                                             
C 26.84  0.00 22.89                                                             
C 26.84  0.00 35.98                                                             
C 26.84  0.00 49.06                                                             
C 26.84  0.00 62.14                                                             
C  6.71 16.27  9.81                                                             
C  6.71 16.27 22.89                                                             
C  6.71 16.27 35.98                                                             
C  6.71 16.27 49.06                                                             
C  6.71 16.27 62.14                                                             
C 10.74 13.95  9.81                                                             
C 10.74 13.95 22.89                                                             
C 10.74 13.95 35.98                                                             
C 10.74 13.95 49.06                                                             
C 10.74 13.95 62.14                                                             
C 14.76 11.62  9.81                                                             
C 14.76 11.62 22.89                                                             
C 14.76 11.62 35.98                                                             
C 14.76 11.62 49.06                                                             
C 14.76 11.62 62.14                                                             
C 18.79  9.30  9.81                                                             
C 18.79  9.30 22.89                                                             
C 18.79  9.30 35.98                                                             
C 18.79  9.30 49.06                                                             
C 18.79  9.30 62.14                                                             
C 22.81  6.97  9.81                                                             
C 22.81  6.97 22.89                                                             
C 22.81  6.97 35.98                                                             
C 22.81  6.97 49.06                                                             
C 22.81  6.97 62.14                                                             
C 26.84  4.65  9.81                                                             
C 26.84  4.65 22.89                                                             
C 26.84  4.65 35.98                                                             
C 26.84  4.65 49.06                                                             
C 26.84  4.65 62.14                                                             
C 30.86  2.32  9.81                                                             
C 30.86  2.32 22.89                                                             
C 30.86  2.32 35.98                                                             
C 30.86  2.32 49.06                                                             
C 30.86  2.32 62.14                                                             
C 14.76 16.27  9.81                                                             
C 14.76 16.27 22.89                                                             
C 14.76 16.27 35.98                                                             
C 14.76 16.27 49.06                                                             
C 14.76 16.27 62.14                                                             
C 18.79 13.95  9.81                                                             
C 18.79 13.95 22.89                                                             
C 18.79 13.95 35.98                                                             
C 18.79 13.95 49.06                                                             
C 18.79 13.95 62.14                                                             
C 22.81 11.62  9.81                                                             
C 22.81 11.62 22.89                                                             
C 22.81 11.62 35.98                                                             
C 22.81 11.62 49.06                                                             
C 22.81 11.62 62.14                                                             
C 26.84  9.30  9.81                                                             
C 26.84  9.30 22.89                                                             
C 26.84  9.30 35.98                                                             
C 26.84  9.30 49.06                                                             
C 26.84  9.30 62.14                                                             
C 30.86  6.97  9.81                                                             
C 30.86  6.97 22.89                                                             
C 30.86  6.97 35.98                                                             
C 30.86  6.97 49.06                                                             
C 30.86  6.97 62.14                                                             
C 22.81 16.27  9.81                                                             
C 22.81 16.27 22.89                                                             
C 22.81 16.27 35.98                                                             
C 22.81 16.27 49.06                                                             
C 22.81 16.27 62.14                                                             
C 26.84 13.95  9.81                                                             
C 26.84 13.95 22.89                                                             
C 26.84 13.95 35.98                                                             
C 26.84 13.95 49.06                                                             
C 26.84 13.95 62.14                                                             
C 30.86 11.62  9.81                                                             
C 30.86 11.62 22.89                                                             
C 30.86 11.62 35.98                                                             
C 30.86 11.62 49.06                                                             
C 30.86 11.62 62.14                                                             
C 30.86 16.27  9.81                                                             
C 30.86 16.27 22.89                                                             
C 30.86 16.27 35.98                                                             
C 30.86 16.27 49.06                                                             
C 30.86 16.27 62.14                                                             
%ENDBLOCK POSITIONS_ABS                                                         

--------------------------------------------------------------------------------
-------------------------------- END INPUT FILE --------------------------------
--------------------------------------------------------------------------------


 
<<<<<<<<<<<<<<<<<<<<<<<<<<<<<<<<< Full system >>>>>>>>>>>>>>>>>>>>>>>>>>>>>>>>>>
<<<<<<<<<<<<<<<<<<<<<<<<<<< PAW Dataset information >>>>>>>>>>>>>>>>>>>>>>>>>>>
File: ~/pp/paw/c_pbe_abinit.paw; rc = 1.25 bohr; shape type =  3; rshape = 1.25 bohr;
  Atomic number:  6;  ionic charge:  4.000000
    Partial Wave 1: l = 0
    Partial Wave 2: l = 0
    Partial Wave 3: l = 1
    Partial Wave 4: l = 1
  Core charge supplied for Nonlinear Core Corrections
<<<<<<<<<<<<<<<<<<<<<<<<<<<<<<<<<<<<<<< >>>>>>>>>>>>>>>>>>>>>>>>>>>>>>>>>>>>>>>

-------------------------- Atom counting information ---------------------------
Symbol    Natoms    Nngwfs    Nprojs
  C        640      2560      5120
.......   ......    ......    ......
Totals:    640      2560      5120
--------------------------------------------------------------------------------

=============================== PSINC grid sizes ===============================
                      Simulation cell:   63 x  35 x 129
                              FFT-box:   63 x  35 x 117
                                  PPD:    7 x   5 x   1
Grid space d1=  0.511269841270a0 (KE cutoff=  29.06054Eh = 790.77748eV)
Grid space d2=  0.531142857143a0 (KE cutoff=  26.92659Eh = 732.70972eV)
Grid space d3=  0.507054263566a0 (KE cutoff=  29.54576Eh = 803.98096eV)
================================================================================
  
WARNING in cell_grid_distribute:
Average of less than one 23-slab per node, so workload cannot be
equally balanced between nodes.

********************* Fourier parallelisation information **********************
       Coarse grid (whole simulation cell) dimensions:     63    35   129
          Real-space ('12') slabs/node (min max mean):      3     4     3
         Recip-space ('23') slabs/node (min max mean):      0     1     0
********************************************************************************

********************* Fourier parallelisation information **********************
       Double grid (whole simulation cell) dimensions:    126    70   258
          Real-space ('12') slabs/node (min max mean):      6     7     6
         Recip-space ('23') slabs/node (min max mean):      1     2     1
********************************************************************************

Atom SCF Calculation for C  : Z (AE atom) =   6 : Z (PS atom) =   4
Config String: 2s2 2p2
Orbitals (num,occ):  2     2.00 2.00
Orbitals   (num,l):  2        0    1
Real-space Grid (nr,dr,rmax): 1293    0.0069659443    9.0000000000
Spherical Bessel Basis (nsws,lmax,cutoff):   37    2  161.4736382572
Confining potential (l,width,scale):  0    3.0000000000  100.0000000000
Confining potential (l,width,scale):  1    3.0000000000  100.0000000000
  1         -5.4966243538   -1.3415066196    4.5135257941   -1.6613421942
  2         -5.4660395227   -1.4172174419    4.4326892861   -1.6365362708
  3         -5.4759582348   -1.4337557188    4.4144498970   -1.6324663609
  4         -5.4843804720   -1.4365219414    4.4114201180   -1.6322033818
  5         -5.4882713954   -1.4381734139    4.4096331461   -1.6320227940
  6         -5.4902132675   -1.4390636620    4.4086785626   -1.6319270645
  7         -5.4912093711   -1.4395303631    4.4081823351   -1.6318789226
  8         -5.4917264140   -1.4397726342    4.4079268833   -1.6318551036
  9         -5.4919964206   -1.4398979410    4.4077958777   -1.6318434025
 10         -5.4921379132   -1.4399626875    4.4077287721   -1.6318376788
 11         -5.4922122245   -1.4399961532    4.4076943935   -1.6318348878
 12         -5.4922513136   -1.4400134684    4.4076767658   -1.6318335308
 13         -5.4922719001   -1.4400224400    4.4076677156   -1.6318328728
 14         -5.4922827535   -1.4400270959    4.4076630621   -1.6318325547
 15         -5.4922884809   -1.4400295164    4.4076606653   -1.6318324014
 16         -5.4922915059   -1.4400307770    4.4076594286   -1.6318323279
 17         -5.4922931051   -1.4400314347    4.4076587894   -1.6318322927
 18         -5.4922939512   -1.4400317785    4.4076584583   -1.6318322760
 19         -5.4922943993   -1.4400319585    4.4076582865   -1.6318322681
 20         -5.4922946368   -1.4400320529    4.4076581972   -1.6318322644
 21         -5.4922947627   -1.4400321025    4.4076581507   -1.6318322627
 22         -5.4922948296   -1.4400321287    4.4076581265   -1.6318322619
Atom SCF converged after  22 iterations to a total energy of     -5.49229483

Determining parallel strategy ...
... using space-filling curve
... NGWF load balancing: max     64;  min     64;  average     64
... Projector load balancing: max    128;  min    128;  average    128
... done
Calculating Ewald energy ...
              Ewald: real-space energy =    9490.277725
        Ewald: reciprocal-space energy =       0.131735
         Ewald: (sum_charge)**2 Energy =   11196.574884
         Ewald: (sum_charge**2) Energy =     885.166966
                          Ewald Energy =   -2591.332390
Basis initialisation ...... NGWF spheres initialised
... Projector spheres initialised
... NGWF tight boxes initialised
... Projector tight boxes initialised
... Tight-boxes gathered
... NGWF basis size (local,global):     693268  27894784
... PAW projector initialisation
... done

============================= Charge Augmentation ==============================
                           Aug box size:   11 x  11 x  11
================================================================================

========================== Sparse matrix information ===========================
                        Overlap matrix filling:  44.38%
                        Density kernel filling: 100.00%
              NGWF-Proj overlap matrix filling:  12.19%
                    Aug Overlap matrix filling:  47.03%
                    Hamiltonian matrix filling:  47.03%
                  NGWF diagonal matrix filling:   0.16%
                             KS matrix filling: 100.00% 
                           KSKS matrix filling: 100.00% 
================================================================================

Sparse matrix initialisation ... done
NGWF initialisation ...... done
============ Calculation of NGWF S^-1 using Hotelling algorithm ================ 
         Iteration  |  Frobenius norm and Maximum abs value    (of I-S*S_n^-1)   
               1       0.49090585E+02     0.97632770E+00
               2       0.47884140E+02     0.95451238E+00
               3       0.46068701E+02     0.91548674E+00
               4       0.43706681E+02     0.85109489E+00
               5       0.40870618E+02     0.75551950E+00
               6       0.37551581E+02     0.68151773E+00
               7       0.34055549E+02     0.63284360E+00
               8       0.30708432E+02     0.59186656E+00
               9       0.27157335E+02     0.54782021E+00
              10       0.22684990E+02     0.47946885E+00
              11       0.16847117E+02     0.37073529E+00
              12       0.10068519E+02     0.22660408E+00
              13       0.41040881E+01     0.90185061E-01
              14       0.81862750E+00     0.16405270E-01
              15       0.39492890E-01     0.67261857E-03
              16       0.12180097E-03     0.15032441E-05
              17       0.17669392E-08     0.13100077E-10
              18       0.77708498E-13     0.39968029E-14
================================================================================
Calculating core density ...
================================= Core Density =================================
               Core den box size:   21 x  21 x  21
================================================================================
 ... done
Up spin density kernel initialisation ...... done

Writing density kernel to file "3.4613248_GO_manual_4x64graphite.dkn" ... done

>>> Optimising kernel for current NGWFs:

--------------------------- Ensemble-DFT optimisation --------------------------
Running ScaLAPACK on   40 processor(s).

--------------------------------------------------------------------------------
  Iter                              Commutator    Free_energy(A=E-TS)     DeltaA
#    0                          0.000039080137   -3655.58942918275670  -3.66E+03

Step                       =       0.381966011250
Energy                     =   -3655.589398474240
Entropy (-TS)              =      -0.000030708668
Free energy (A=E-TS)       =   -3655.589429182757
Est. 0K Energy 0.5*(E+A)   =   -3655.589413828498
Residual Non-orthogonality =       0.000000000000
Residual N_electrons       =       0.000000000151

Spin          Integrated_Ne            Fermi_level     Delta_Fermi_level
   1      2559.999999999235         0.197487491334              1.97E-01

                           Spin 1          
     Orb      H-eigenvalues     Occupancies
       1 |    -0.5275483577    1.0000000000 | 
                          ------
    1276 |     0.1633658750    0.9999790794 | 
    1277 |     0.1639725734    0.9999746619 | 
    1278 |     0.1639910127    0.9999745139 | 
    1279 |     0.1643747017    0.9999712313 | 
    1280 |     0.1649963910    0.9999649913 | 
                 - Gap at zero temperature -
    1281 |     0.2325893049    0.0000153516 | 
    1282 |     0.2326053247    0.0000152741 | 
    1283 |     0.2326371177    0.0000151215 | 
    1284 |     0.2328175388    0.0000142841 | 
    1285 |     0.2328336210    0.0000142118 | 
                          ------
    2560 |     1.0315845303    0.0000000000 | 

                       |  Abs_value |  Threshold | Converged
     Delta_Free_energy |   3.66E+03 |   1.00E-06 |        No
     Delta_Energy      |   3.66E+03 |   1.00E-04 |        No
     Delta_Entropy     |   3.07E-05 |   1.00E-04 |       Yes
     Commutator        |   3.91E-05 |   1.00E-05 |        No
     Delta_Fermi_level |   1.97E-01 |   1.00E-03 |        No

  Line search of the free energy minimum:
  Step_type        Step             Free_energy   Predicted_free_energy
.   Initial    0.000000    -3655.58942918275670
.    Trial1    0.381966    -3655.59100620446088
.    Trial2    0.618034    -3655.59122503943172
. Quadratic    0.589471    -3655.59122906743414    -3655.59122926590362

--------------------------------------------------------------------------------
  Iter                              Commutator    Free_energy(A=E-TS)     DeltaA
#    1                          0.000021756948   -3655.59122906743414  -1.80E-03

Step                       =       0.589470905793
Energy                     =   -3655.591199356651
Entropy (-TS)              =      -0.000029710461
Free energy (A=E-TS)       =   -3655.591229067434
Est. 0K Energy 0.5*(E+A)   =   -3655.591214212042
Residual Non-orthogonality =       0.000000000000
Residual N_electrons       =      -0.000000000322

Spin          Integrated_Ne            Fermi_level     Delta_Fermi_level
   1      2560.000000001623         0.198632297866              1.14E-03

                           Spin 1          
     Orb      H-eigenvalues     Occupancies
       1 |    -0.5280880047    1.0000000000 | 
                          ------
    1276 |     0.1644882982    0.9999792267 | 
    1277 |     0.1649389161    0.9999760503 | 
    1278 |     0.1649581644    0.9999759042 | 
    1279 |     0.1655097265    0.9999713200 | 
    1280 |     0.1659760929    0.9999667697 | 
                 - Gap at zero temperature -
    1281 |     0.2337889176    0.0000150882 | 
    1282 |     0.2338192285    0.0000149445 | 
    1283 |     0.2338470823    0.0000148136 | 
    1284 |     0.2340474885    0.0000139052 | 
    1285 |     0.2340651778    0.0000138278 | 
                          ------
    2560 |     1.0330995992    0.0000000000 | 

                       |  Abs_value |  Threshold | Converged
     Delta_Free_energy |   1.80E-03 |   1.00E-06 |        No
     Delta_Energy      |   1.80E-03 |   1.00E-04 |        No
     Delta_Entropy     |   9.98E-07 |   1.00E-04 |       Yes
     Commutator        |   2.18E-05 |   1.00E-05 |        No
     Delta_Fermi_level |   1.14E-03 |   1.00E-03 |        No

  Line search of the free energy minimum:
  Step_type        Step             Free_energy   Predicted_free_energy
.   Initial    0.000000    -3655.59122906743414
.    Trial1    0.589471    -3655.59091869019130
.    Trial2    0.225158    -3655.59163856344867
. Quadratic    0.253839    -3655.59164376255285    -3655.59164385897157

--------------------------------------------------------------------------------
  Iter                              Commutator    Free_energy(A=E-TS)     DeltaA
#    2                          0.000012028774   -3655.59164376255285  -4.15E-04

Step                       =       0.253839094864
Energy                     =   -3655.591614260334
Entropy (-TS)              =      -0.000029502398
Free energy (A=E-TS)       =   -3655.591643762553
Est. 0K Energy 0.5*(E+A)   =   -3655.591629011444
Residual Non-orthogonality =       0.000000000000
Residual N_electrons       =       0.000000000179

Spin          Integrated_Ne            Fermi_level     Delta_Fermi_level
   1      2559.999999999099         0.198827066234              1.95E-04

                           Spin 1          
     Orb      H-eigenvalues     Occupancies
       1 |    -0.5281903508    1.0000000000 | 
                          ------
    1276 |     0.1646303171    0.9999795699 | 
    1277 |     0.1651334423    0.9999760521 | 
    1278 |     0.1651524730    0.9999759077 | 
    1279 |     0.1656503706    0.9999718060 | 
    1280 |     0.1661689792    0.9999667894 | 
                 - Gap at zero temperature -
    1281 |     0.2340217779    0.0000149078 | 
    1282 |     0.2340506136    0.0000147727 | 
    1283 |     0.2340812517    0.0000146304 | 
    1284 |     0.2342884491    0.0000137039 | 
    1285 |     0.2343064787    0.0000136261 | 
                          ------
    2560 |     1.0333626543    0.0000000000 | 

                       |  Abs_value |  Threshold | Converged
     Delta_Free_energy |   4.15E-04 |   1.00E-06 |        No
     Delta_Energy      |   4.15E-04 |   1.00E-04 |        No
     Delta_Entropy     |   2.08E-07 |   1.00E-04 |       Yes
     Commutator        |   1.20E-05 |   1.00E-05 |        No
     Delta_Fermi_level |   1.95E-04 |   1.00E-03 |       Yes

  Line search of the free energy minimum:
  Step_type        Step             Free_energy   Predicted_free_energy
.   Initial    0.000000    -3655.59164376255285
.    Trial1    0.253839    -3655.59176094651320
.    Trial2    0.538847    -3655.59174128393397
. Quadratic    0.361315    -3655.59177229299394    -3655.59177232148295

--------------------------------------------------------------------------------
  Iter                              Commutator    Free_energy(A=E-TS)     DeltaA
#    3                          0.000008341235   -3655.59177229299394  -1.29E-04

Step                       =       0.361314604917
Energy                     =   -3655.591743004376
Entropy (-TS)              =      -0.000029288715
Free energy (A=E-TS)       =   -3655.591772292994
Est. 0K Energy 0.5*(E+A)   =   -3655.591757648685
Residual Non-orthogonality =       0.000000000000
Residual N_electrons       =       0.000000000097

Spin          Integrated_Ne            Fermi_level     Delta_Fermi_level
   1      2559.999999999513         0.199035214042              2.08E-04

                           Spin 1          
     Orb      H-eigenvalues     Occupancies
       1 |    -0.5282911179    1.0000000000 | 
                          ------
    1276 |     0.1648025576    0.9999798002 | 
    1277 |     0.1653262184    0.9999761680 | 
    1278 |     0.1653449354    0.9999760268 | 
    1279 |     0.1658229120    0.9999721212 | 
    1280 |     0.1663617265    0.9999669505 | 
                 - Gap at zero temperature -
    1281 |     0.2342581710    0.0000147754 | 
    1282 |     0.2342843401    0.0000146538 | 
    1283 |     0.2343221592    0.0000144799 | 
    1284 |     0.2345292184    0.0000135634 | 
    1285 |     0.2345480936    0.0000134828 | 
                          ------
    2560 |     1.0336614504    0.0000000000 | 

                       |  Abs_value |  Threshold | Converged
     Delta_Free_energy |   1.29E-04 |   1.00E-06 |        No
     Delta_Energy      |   1.29E-04 |   1.00E-04 |        No
     Delta_Entropy     |   2.14E-07 |   1.00E-04 |       Yes
     Commutator        |   8.34E-06 |   1.00E-05 |       Yes
     Delta_Fermi_level |   2.08E-04 |   1.00E-03 |       Yes

  Line search of the free energy minimum:
  Step_type        Step             Free_energy   Predicted_free_energy
.   Initial    0.000000    -3655.59177229299394
.    Trial1    0.361315    -3655.59181959076477
.    Trial2    0.605271    -3655.59172932223782
. Quadratic    0.259744    -3655.59182814976748    -3655.59182812882909

--------------------------------------------------------------------------------
  Iter                              Commutator    Free_energy(A=E-TS)     DeltaA
#    4                          0.000005549171   -3655.59182814976748  -5.59E-05

Step                       =       0.259743884019
Energy                     =   -3655.591798956040
[...]
 C   160 -- C   385       -0.10      5.37000
 C   159 -- C   384       -0.10      5.37000
 C   158 -- C   383       -0.10      5.37000
 C   157 -- C   382       -0.10      5.37000
 C   156 -- C   381       -0.10      5.37000
 C   155 -- C   355       -0.10      5.37000
 C   154 -- C   354       -0.10      5.37000
 C   153 -- C   353       -0.10      5.37000
 C   152 -- C   352       -0.10      5.37000
 C   151 -- C   351       -0.10      5.37000
 C   140 -- C   335       -0.10      5.37000
 C   139 -- C   334       -0.10      5.37000
 C   138 -- C   333       -0.10      5.37000
 C   137 -- C   332       -0.10      5.37000
 C   136 -- C   331       -0.10      5.37000
 C   115 -- C   325       -0.10      5.37000
 C   114 -- C   324       -0.10      5.37000
 C   113 -- C   323       -0.10      5.37000
 C   112 -- C   322       -0.10      5.37000
 C   111 -- C   321       -0.10      5.37000
 C   285 -- C   580       -0.10      5.37202
 C   284 -- C   579       -0.10      5.37202
 C   283 -- C   578       -0.10      5.37202
 C   282 -- C   577       -0.10      5.37202
 C   281 -- C   576       -0.10      5.37202
 C   260 -- C   605       -0.10      5.37202
 C   259 -- C   604       -0.10      5.37202
 C   258 -- C   603       -0.10      5.37202
 C   257 -- C   602       -0.10      5.37202
 C   256 -- C   601       -0.10      5.37202
 C   219 -- C   569       -0.10      5.37202
 C   218 -- C   568       -0.10      5.37202
 C   217 -- C   567       -0.10      5.37202
 C   216 -- C   566       -0.10      5.37202
 C   205 -- C   550       -0.10      5.37202
 C   204 -- C   549       -0.10      5.37202
 C   203 -- C   548       -0.10      5.37202
 C   202 -- C   547       -0.10      5.37202
 C   201 -- C   546       -0.10      5.37202
 C   150 -- C   440       -0.10      5.37202
 C   149 -- C   439       -0.10      5.37202
 C   148 -- C   438       -0.10      5.37202
 C   147 -- C   437       -0.10      5.37202
 C   146 -- C   436       -0.10      5.37202
 C   135 -- C   460       -0.10      5.37202
 C   134 -- C   459       -0.10      5.37202
 C   133 -- C   458       -0.10      5.37202
 C   132 -- C   457       -0.10      5.37202
 C   131 -- C   456       -0.10      5.37202
 C   260 -- C   550       -0.10      5.37202
 C   259 -- C   549       -0.10      5.37202
 C   258 -- C   548       -0.10      5.37202
 C   257 -- C   547       -0.10      5.37202
 C   256 -- C   546       -0.10      5.37202
 C   250 -- C   540       -0.10      5.37202
 C   249 -- C   539       -0.10      5.37202
 C   248 -- C   538       -0.10      5.37202
 C   247 -- C   537       -0.10      5.37202
 C   246 -- C   536       -0.10      5.37202
 C   230 -- C   580       -0.10      5.37202
 C   230 -- C   525       -0.10      5.37202
 C   229 -- C   579       -0.10      5.37202
 C   229 -- C   524       -0.10      5.37202
 C   228 -- C   578       -0.10      5.37202
 C   228 -- C   523       -0.10      5.37202
 C   227 -- C   577       -0.10      5.37202
 C   227 -- C   522       -0.10      5.37202
 C   226 -- C   576       -0.10      5.37202
 C   226 -- C   521       -0.10      5.37202
 C   220 -- C   570       -0.10      5.37202
 C    95 -- C   425       -0.10      5.37202
 C    94 -- C   424       -0.10      5.37202
 C    93 -- C   423       -0.10      5.37202
 C    92 -- C   422       -0.10      5.37202
 C    91 -- C   421       -0.10      5.37202
 C   120 -- C   395       -0.10      5.37202
 C   119 -- C   394       -0.10      5.37202
 C   118 -- C   393       -0.10      5.37202
 C   117 -- C   392       -0.10      5.37202
 C   116 -- C   391       -0.10      5.37202
 C   106 -- C   436       -0.10      5.37202
 C   220 -- C   515       -0.10      5.37202
 C   219 -- C   514       -0.10      5.37202
 C   106 -- C   376       -0.10      5.37202
 C   218 -- C   513       -0.10      5.37202
 C   217 -- C   512       -0.10      5.37202
 C   216 -- C   511       -0.10      5.37202
 C    95 -- C   365       -0.10      5.37202
 C    94 -- C   364       -0.10      5.37202
 C   195 -- C   540       -0.10      5.37202
 C   195 -- C   500       -0.10      5.37202
 C    93 -- C   363       -0.10      5.37202
 C   194 -- C   539       -0.10      5.37202
 C   194 -- C   499       -0.10      5.37202
 C   193 -- C   538       -0.10      5.37202
 C   193 -- C   498       -0.10      5.37202
 C    92 -- C   362       -0.10      5.37202
 C   192 -- C   537       -0.10      5.37202
 C   192 -- C   497       -0.10      5.37202
 C   191 -- C   536       -0.10      5.37202
 C   191 -- C   496       -0.10      5.37202
 C    91 -- C   361       -0.10      5.37202
 C    85 -- C   355       -0.10      5.37202
 C   180 -- C   515       -0.10      5.37202
 C    84 -- C   354       -0.10      5.37202
 C   179 -- C   514       -0.10      5.37202
 C    83 -- C   353       -0.10      5.37202
 C   178 -- C   513       -0.10      5.37202
 C   177 -- C   512       -0.10      5.37202
 C    82 -- C   352       -0.10      5.37202
 C   176 -- C   511       -0.10      5.37202
 C    81 -- C   351       -0.10      5.37202
 C    80 -- C   410       -0.10      5.37202
 C    79 -- C   409       -0.10      5.37202
 C    78 -- C   408       -0.10      5.37202
 C    77 -- C   407       -0.10      5.37202
 C    76 -- C   406       -0.10      5.37202
 C    65 -- C   395       -0.10      5.37202
 C    64 -- C   394       -0.10      5.37202
 C    63 -- C   393       -0.10      5.37202
 C   135 -- C   410       -0.10      5.37202
 C    62 -- C   392       -0.10      5.37202
 C   134 -- C   409       -0.10      5.37202
 C   133 -- C   408       -0.10      5.37202
 C    61 -- C   391       -0.10      5.37202
 C   132 -- C   407       -0.10      5.37202
 C   131 -- C   406       -0.10      5.37202
 C    55 -- C   385       -0.10      5.37202
 C    54 -- C   384       -0.10      5.37202
 C    53 -- C   383       -0.10      5.37202
 C    52 -- C   382       -0.10      5.37202
 C   110 -- C   440       -0.10      5.37202
 C    51 -- C   381       -0.10      5.37202
 C   110 -- C   380       -0.10      5.37202
 C   109 -- C   439       -0.10      5.37202
 C   109 -- C   379       -0.10      5.37202
 C   108 -- C   438       -0.10      5.37202
 C   108 -- C   378       -0.10      5.37202
 C   107 -- C   437       -0.10      5.37202
 C   107 -- C   377       -0.10      5.37202
 C    40 -- C   365       -0.10      5.37202
 C    39 -- C   364       -0.10      5.37202
 C    38 -- C   363       -0.10      5.37202
 C    37 -- C   362       -0.10      5.37202
 C    36 -- C   361       -0.10      5.37202
 C    65 -- C   345       -0.10      5.37202
 C    64 -- C   344       -0.10      5.37202
 C    30 -- C   355       -0.10      5.37202
 C    63 -- C   343       -0.10      5.37202
 C    62 -- C   342       -0.10      5.37202
 C    29 -- C   354       -0.10      5.37202
 C    61 -- C   341       -0.10      5.37202
 C    28 -- C   353       -0.10      5.37202
 C    27 -- C   352       -0.10      5.37202
 C    26 -- C   351       -0.10      5.37202
 C    55 -- C   335       -0.10      5.37202
 C    54 -- C   334       -0.10      5.37202
 C    53 -- C   333       -0.10      5.37202
 C    52 -- C   332       -0.10      5.37202
 C    51 -- C   331       -0.10      5.37202
 C    11 -- C   331       -0.10      5.37202
 C    15 -- C   335       -0.10      5.37202
 C    30 -- C   325       -0.10      5.37202
 C    14 -- C   334       -0.10      5.37202
 C    29 -- C   324       -0.10      5.37202
 C    28 -- C   323       -0.10      5.37202
 C    13 -- C   333       -0.10      5.37202
 C    27 -- C   322       -0.10      5.37202
 C    26 -- C   321       -0.10      5.37202
 C    12 -- C   332       -0.10      5.37202
 C    23 -- C   478       -0.10      5.37202
 C    49 -- C   469       -0.10      5.37202
 C    48 -- C   468       -0.10      5.37202
 C    47 -- C   467       -0.10      5.37202
 C    22 -- C   477       -0.10      5.37202
 C    46 -- C   466       -0.10      5.37202
 C    21 -- C   476       -0.10      5.37202
 C    25 -- C   480       -0.10      5.37202
 C    24 -- C   479       -0.10      5.37202
 C    50 -- C   470       -0.10      5.37202
 C    24 -- C   449       -0.10      5.37202
 C     6 -- C   416       -0.10      5.37202
 C    23 -- C   448       -0.10      5.37202
 C    22 -- C   447       -0.10      5.37202
 C    10 -- C   470       -0.10      5.37202
 C     5 -- C   450       -0.10      5.37202
 C    21 -- C   446       -0.10      5.37202
 C    10 -- C   420       -0.10      5.37202
 C     9 -- C   469       -0.10      5.37202
 C     9 -- C   419       -0.10      5.37202
 C     8 -- C   468       -0.10      5.37202
 C     4 -- C   449       -0.10      5.37202
 C     8 -- C   418       -0.10      5.37202
 C     2 -- C   447       -0.10      5.37202
 C     7 -- C   467       -0.10      5.37202
 C     7 -- C   417       -0.10      5.37202
 C     1 -- C   446       -0.10      5.37202
 C     6 -- C   466       -0.10      5.37202
 C    25 -- C   450       -0.10      5.37202
 C     3 -- C   448       -0.10      5.37202
 C   215 -- C   635       -0.10      5.38000
 C   214 -- C   634       -0.10      5.38000
 C   213 -- C   633       -0.10      5.38000
 C   212 -- C   632       -0.10      5.38000
 C   211 -- C   631       -0.10      5.38000
 C   190 -- C   620       -0.10      5.38000
 C   189 -- C   619       -0.10      5.38000
 C   188 -- C   618       -0.10      5.38000
 C   187 -- C   617       -0.10      5.38000
 C   186 -- C   616       -0.10      5.38000
 C   175 -- C   595       -0.10      5.38000
 C   174 -- C   594       -0.10      5.38000
 C   173 -- C   593       -0.10      5.38000
 C   172 -- C   592       -0.10      5.38000
 C   171 -- C   591       -0.10      5.38000
 C   245 -- C   640       -0.10      5.38000
 C   244 -- C   639       -0.10      5.38000
 C   243 -- C   638       -0.10      5.38000
 C   242 -- C   637       -0.10      5.38000
 C   241 -- C   636       -0.10      5.38000
==================================================


=================== Orbital energy and occupancy information ===================

      Total number of orbitals:    2560
        Occupancy sum (kernel):    1280.000000000
   Occupancy sum (eigenvalues):    1280.000000000
                 HOMO-LUMO gap:       0.064320293 Eh
                 Mid-gap level:       0.248942736 Eh

                        Orbital | Energy (Eh) | Occupancy
                            1    -0.476261082   1.0000000
                        .......   ...........   .........
                         1271     0.211446136   0.9999891
                         1272     0.211458931   0.9999891
                         1273     0.211918162   0.9999874
                         1274     0.211930946   0.9999873
                         1275     0.215284178   0.9999635
                         1276     0.215291377   0.9999634
                         1277     0.215746726   0.9999578
                         1278     0.215753877   0.9999577
                         1279     0.216327793   0.9999493
                         1280     0.216782589   0.9999415
                        ....... -- gap at 0K -- .........
                         1281     0.281102882   0.0000257
                         1282     0.281110012   0.0000257
                         1283     0.281358400   0.0000237
                         1284     0.281365477   0.0000237
                         1285     0.281596273   0.0000221
                         1286     0.281608109   0.0000220
                         1287     0.281865135   0.0000203
                         1288     0.281876910   0.0000202
                         1289     0.282007330   0.0000194
                         1290     0.282280608   0.0000178
                        .......   ...........   .........
                         2560     1.140424086   0.0000000

================================================================================

===================== Writing canonical molecular orbitals =====================
| Orbital  Energy (eV)  Norm     |
| HOMO      5.89895440  1.000000 | Writing "3.4613248_GO_manual_4x64graphite_HOMO.cube" ... done
Writing "3.4613248_GO_manual_4x64graphite_HOMO.dx" ... done
| LUMO      7.64919865  1.000000 | Writing "3.4613248_GO_manual_4x64graphite_LUMO.cube" ... done
Writing "3.4613248_GO_manual_4x64graphite_LUMO.dx" ... done
================================================================================
 
===================== Density of States (DOS) calculation ======================
Writing "3.4613248_GO_manual_4x64graphite_DOS.txt" ...  done
================================================================================
 
Writing bands to file "3.4613248_GO_manual_4x64graphite.val_bands" ... done
 
================ Projected Density of States (pDOS) calculation ================
 
Constructing AM resolved functions  ...... done
Writing NGWF plot files in formats: CUBE DX ...  done
 
Performing overlap integrals ...  done
 
Computing pDOS weights ...  done
 
All bands spilling parameter =   3.66 %
Occupancy-weighted spilling parameter =   0.91 %
 
 => Outputting data for OptaDOS <=
 
Writing pDOS weights to file "3.4613248_GO_manual_4x64graphite.val_pdos_bin" ... done
 
Writing band gradients to file "3.4613248_GO_manual_4x64graphite.val_dome_bin" ... done
 
Writing Castep output cell file to "3.4613248_GO_manual_4x64graphite-out.cell" ... done
 
 => Computing Gaussian smeared pDOS <= 
Writing "3.4613248_GO_manual_4x64graphite_PDOS.txt" ...  done
 
 => Computing Occupancy-weighted Gaussian smeared pDOS <= 
Writing "3.4613248_GO_manual_4x64graphite_occ_PDOS.txt" ...  done
  => Band centres: 
 S band centre of group 1:  -13.877584 eV
 P band centre of group 1:   -6.729946 eV
  Band centres done. <=
  => Integrated number of electrons in each AM band: 
 S num electrons of group 1:  577.284517
 P num electrons of group 1: 1959.328538
  Integrated number of electrons done. <=
================================================================================

------------------------------ TIMING INFORMATION ------------------------------
AVERAGE TIME:    3993.808s on     40 node(s)                                    
TOTAL TIME:      3993.809s on     40 node(s)                                    
================= AVERAGE TIMINGS FROM ALL NODES (CUMULATIVE) ==================
|| TAG                                    #calls    cpu time   %total  Gflops ||
|| work_imbalance                       :     1        0.00s   0.000%  ------ ||
|| paw_tcore_hartree_on_grid            :     1        0.00s   0.000%  ------ ||
|| paw_tcore_density                    :     1        0.01s   0.000%  ------ ||
|| paw_sphere_density_on_grid           :     1        0.01s   0.000%  ------ ||
|| sparse_set_to_garbage                :   171        0.03s   0.001%  ------ ||
|| paw_dij_hartree                      :   350        0.04s   0.001%  ------ ||
|| pseudo_make_structure_factor         :     1        0.07s   0.002%  ------ ||
|| basis_extract_function_from_box      :  1920        0.08s   0.002%  ------ ||
|| paw_species_calc_proj_prec_mat       :     1        0.12s   0.003%  ------ ||
|| paw_dataset_init                     :     1        0.15s   0.004%  ------ ||
|| density_init_guess_real              :     1        0.22s   0.005%  ------ ||
|| ngwfs_initialise_from_radial         :     2        0.67s   0.017%  ------ ||
|| sparse_init                          :     1        0.92s   0.023%  ------ ||
|| dense_normal_eigensolve              :     1        0.98s   0.024%  ------ ||
|| hartree_on_grid                      :   262        1.64s   0.041%  ------ ||
|| restart_kernel_write                 :    16        2.31s   0.058%  ------ ||
|| ewald_calculate_energy               :     1        2.66s   0.067%  ------ ||
|| projectors_init_fftbox_recip         :   151        2.90s   0.073%  ------ ||
|| fourier_apply_box_pair               :  2848        4.70s   0.118% 561.843 ||
|| basis_copy_function_to_box           : 24896        5.37s   0.134%  ------ ||
|| augmentation_screen_dij              :   267        6.15s   0.154%  ------ ||
|| sw_init                              :     1        6.73s   0.169%  ------ ||
|| sparse_embed_hotelling_invert_embed  :    29        8.44s   0.211%  ------ ||
|| ngwf_gradient_coeffs                 :    15       10.30s   0.258%  ------ ||
|| sparse_trace                         :  3168       14.15s   0.354%  ------ ||
|| cell_grid_extract_box_real           : 10492       16.41s   0.411%  ------ ||
|| fourier_apply_cell_backward          :  8093       18.23s   0.456%  53.904 ||
|| fourier_apply_cell_forward           :  7570       19.64s   0.492%  46.789 ||
|| cell_grid_deposit_box_real           : 33712       21.92s   0.549%  ------ ||
|| paw_dij_xc                           :   350       23.26s   0.582%  ------ ||
|| aug_nonlocal_mat                     :   335       34.20s   0.856%  ------ ||
|| density_fftbox_deposit_to_cell       : 16768       43.34s   1.085%  ------ ||
|| augmentation_density_on_grid         :   262       47.70s   1.194%  ------ ||
|| hamiltonian_energy_components        :     3       47.92s   1.200%  ------ ||
|| eigenstates_pdos                     :     1       53.80s   1.347%  ------ ||
|| eigenstates_calculate                :     1       58.05s   1.453%  ------ ||
|| function_ops_brappd_ketppd           :    60       58.23s   1.458%  ------ ||
|| projectors_func_ovlp_box             :    30       67.00s   1.678%  ------ ||
|| nlxc_vdw_energy                      :   522       76.23s   1.909%  ------ ||
|| xc_energy_potential                  :   261       81.78s   2.048%  ------ ||
|| integrals_kinetic                    :    29      100.91s   2.527%  ------ ||
|| properties_calculate                 :     1      105.39s   2.639%  ------ ||
|| dense_eigensolve                     :   229      120.43s   3.015%  ------ ||
|| potential_apply_to_ngwf_batch        :   328      127.96s   3.204%  ------ ||
|| sparse_product                       :  3212      129.35s   3.239%  ------ ||
|| restart_ngwfs_tightbox_output        :    14      212.94s   5.332%  ------ ||
|| basis_dot_function_with_box          : 8.215M     223.45s   5.595%  ------ ||
|| fourier_apply_box                    : 78496      243.15s   6.088% 980.428 ||
|| edft_diag_ngwf_ham                   :   228      260.56s   6.524%  ------ ||
|| projectors_gradient_batch            :    60      268.32s   6.718%  ------ ||
|| integrals_locpot_mat_els_batch       :   328      303.44s   7.598%  ------ ||
|| density_fftbox_interpolate_multiply  : 16768      323.80s   8.107%  ------ ||
|| projectors_grad_precond_batch        :    60      370.70s   9.282%  ------ ||
|| density_batch_interp_deposit         :  1048      407.08s  10.193%  ------ ||
|| integrals_locpot_dbl_grid            :    82      432.96s  10.841%  ------ ||
|| edft_apply_smearing_operator         :   228      499.83s  12.515%  ------ ||
|| basis_add_function_to_box            : 23.41M     615.17s  15.403%  ------ ||
|| ngwf_gradient_build_batch            :    60      684.35s  17.135%  ------ ||
|| density_batch_row_sums               :  1048      859.81s  21.529%  ------ ||
|| ngwf_gradient_batch                  :    60      922.36s  23.095%  ------ ||
|| ngwf_gradient_lnv                    :    15      951.80s  23.832%  ------ ||
|| density_on_dbl_grid                  :   262     1287.20s  32.230%  ------ ||
|| hamiltonian_lhxc_calculate           :   257     1396.59s  34.969%  ------ ||
|| edft_calculate                       :    15     2311.59s  57.879%  ------ ||
|| ngwf_cg_optimise                     :     1     3860.93s  96.673%  ------ ||
|| total_time                           :     1     3993.81s 100.000%  ------ ||
================================================================================
Overhead of generating timer report: 
- 0 ms averaging over threads,
- 5 ms ensuring consistency across MPI ranks,
- 0 ms printing in order.

Job completed: 26-02-2020 01:57 (-0000)

