 +---------------------------------------------------------------+
 |                                                               |
 |        ####### #     # ####### ####### ####### ######         |
 |        #     # ##    # #          #    #       #     #        |
 |        #     # # #   # #          #    #       #     #        |
 |        #     # #  #  # #####      #    #####   ######         |
 |        #     # #   # # #          #    #       #              |
 |        #     # #    ## #          #    #       #              |
 |        ####### #     # #######    #    ####### #              |
 |                                                               |
 |        Linear-Scaling Ab Initio Total Energy Program          |
 |                                                               |
 |          Release for academic collaborators of ODG            |
 |                                             Version 5.3.2.12  |
 |                                                               |
 +---------------------------------------------------------------+
 |                                                               |
 |  Authors:                                                     |
 |  Jacek Dziedzic, Peter D. Haynes, Nicholas D. M. Hine,        |
 |  Arash. A. Mostofi, Mike C. Payne and Chris-Kriton Skylaris   |
 |                                                               |
 |  Contributors:                                                |
 |  J. Aarons, L. Andrinopoulos, P. W. Avraam, R. A. Bell,       |
 |  A. Bhandari, G. A. Bramley, R. J. Charlton, S. J. Clark,     |
 |  R. J. Clements, G. C. Constantinescu, F. Corsetti,           |
 |  N. Corsini, O. Dieguez, S. M. M. Dubois, K. K. B. Duff,      |
 |  J. M. Escartin, A. Greco, H. Helal, Q. O. Hill, L. P. Lee,   |
 |  J.-H. Li, E. B. Linscott, G. Moynihan, D. D. O`Regan,        |
 |  O. K. Okan, M. J. S. Phipps, C. J. Pickard,                  |
 |  J. C. A. Prentice, M. I. J. Probert, L. E. Ratcliff,         |
 |  M. Robinson, A. Ruiz Serrano, J. S. Spencer, E. W. Tait,     |
 |  G. Teobaldi, D. Turban, V. Vitale, K. A. Wilkinson,          |
 |  C. Weber, J. C. Womack, N. Yeung and T. J. Zuehlsdorff       |
 |                                                               |
 |                                   Copyright (c) 2004-2020     |
 |                                                               |
 |  Please cite:                                                 |
 |  "Introducing ONETEP: Linear-scaling density functional       |
 |   simulations on parallel computers".                         |
 |   C.-K. Skylaris, P. D. Haynes, A. A. Mostofi, M. C. Payne.   |
 |   J. Chem. Phys. 122 084119 (2005).                           |
 |                                                               |
 |          in all publications arising from your use of ONETEP. |
 |                                                               |
 +---------------------------------------------------------------+
 |                                                               |
 |   ONETEP is based on developments described in the following  |
 |   publications:                                               |
 |                                                               |
 |  "Nonorthogonal generalized Wannier function pseudopotential  |
 |   plane-wave method".                                         |
 |   C.-K. Skylaris, A. A. Mostofi, P. D. Haynes, O. Dieguez,    |
 |   M. C. Payne.                                                |
 |   Phys. Rev. B 66 035119 (2002).                              |
 |                                                               |
 |  "Preconditioned iterative minimization for linear-scaling    |
 |   electronic structure calculations".                         |
 |   A. A. Mostofi, P. D. Haynes, C.-K. Skylaris, M. C. Payne.   |
 |   J. Chem. Phys. 119(17), pp.8842-8848 (2003).                |
 |                                                               |
 |  "Total-energy calculations on a real space grid with         |
 |   localized functions and a plane-wave basis".                |
 |   A. A. Mostofi, C.-K. Skylaris, P. D. Haynes, M. C. Payne.   |
 |   Comput. Phys. Commun. 147, pp.788-802 (2002).               |
 |                                                               |
 |  "Accurate kinetic energy evaluation in electronic structure  |
 |   calculations with localized functions on real space grids"  |
 |   C.-K. Skylaris, A. A. Mostofi, P. D. Haynes, C. J. Pickard, |
 |   M. C. Payne.                                                |
 |   Comput. Phys. Commun. 140, pp.315-322 (2001).               |
 |                                                               |
 |  "Accurate ionic forces and geometry optimization in linear-  |
 |   scaling density-functional theory with local orbitals"      |
 |   N. D. M. Hine, M. Robinson, P. D. Haynes, C.-K. Skylaris,   |
 |   M. C. Payne, and A. A. Mostofi.                             |
 |   Phys. Rev. B 83 195102 (2011).                              |
 |                                                               |
 +---------------------------------------------------------------+

Job started: 29-02-2020 11:26 (-0000)
 
Reading parameters from file "3.6491432_GO_manual_4x64graphite.dat" ...

WARNING: "cutoff_energy" not specified, but "psinc_spacing" specified.
         Using the latter to set the KE cutoff energy to  732.32021eV,
         thus *overriding* the default.

... done

If your calculation crashes here, before "Checking processes and threads..."
is displayed, then your stack size is insufficient.
If so, use "ulimit -s unlimited" at runtime.
You can disable this check with "check_stack_size F".

Checking processes and threads...
   Determining the default number of threads...
      No default threads set at compilation time: defaulting to 1.
      OpenMP library call suggests 4 threads.
      Hybrid MPI-OpenMP compilation detected.
      Number of MPI processes > 1.
      OMP_NUM_THREADS environment variable present and
      its value matches the one obtained from the OpenMP library call.
      Using this value as default.
      Default threads: 4
      Default applies to threads_max and threads_num_fftboxes.
      Settings in the input file override this default.
   ... done

   Running with 40 MPI processes.
   There are 10 MPI processes running on the same node as the root process.
   Each MPI process is using: 
               1 threads for simulation cell FFTs.
               1 threads for parallel FFT box operations.
               4 threads for loops over batched FFT box operations.
               4 threads in other parallel regions.
... done

Basic input checks...
Resetting ngwf_cg_rotate to TRUE for EDFT calculations
... done

Reading geometry and species blocks from file "3.6491432_GO_manual_4x64graphite.dat" ...
    
  PSINC grid spacing along a1 set to   0.511215680000a0 from input file.
  PSINC grid spacing along a2 set to   0.531284090000a0 from input file.
  PSINC grid spacing along a3 set to   0.507051130000a0 from input file.
  Number of PPD points along a3 set to 1.  This is 
  the default value, it may have been provided also in the input file.
... done
 Writing xyz coordinates to file "3.6491432_GO_manual_4x64graphite.xyz" ... done


--------------------------------------------------------------------------------
---------------------------------- INPUT FILE ----------------------------------
--------------------------------------------------------------------------------

task : singlepoint                                                              
do_properties : true                                                            
dx_format T                                                                     
edft T                                                                          
output_detail VERBOSE                                                           
write_xyz T                                                                     
xc_functional VDWDF                                                             
PSINC_SPACING 0.51121568 0.53128409 0.50705113                                  
paw T                                                                           
pdos_max_l = 2                                                                  
dos_smear  0.1 eV                                                               
popn_calculate T                                                                
PDOS_PSEUDOATOMIC T                                                             
PDOS_REDUCE_SWS F                                                               
PDOS_CONSTRUCT_BASIS F                                                          
PDOS_LOWDIN T                                                                   
PDOS_ORTH_ATOM_BLOCKS F                                                         
PDOS_LCAO_OPTIMIZE F                                                            
pdos_optados_output T                                                           
homo_plot 0                                                                     
lumo_plot 0                                                                     
homo_dens_plot -1                                                               
lumo_dens_plot -1                                                               
%BLOCK SPECIES                                                                  
C C 6 4 9.0                                                                     
%ENDBLOCK SPECIES                                                               
%BLOCK SPECIES_POT                                                              
C "~/pp/paw/c_pbe_abinit.paw"                                                   
%ENDBLOCK SPECIES_POT                                                           
%BLOCK SPECIES_ATOMIC_SET                                                       
C "SOLVE conf=2s2 2p2"                                                          
%ENDBLOCK SPECIES_ATOMIC_SET                                                    
%BLOCK LATTICE_CART                                                             
32.21  0.00  0.00                                                               
0.00 18.59  0.00                                                                
0.00  0.00 68.96                                                                
%ENDBLOCK LATTICE_CART                                                          
%BLOCK POSITIONS_ABS                                                            
C  0.00  0.00  3.45                                                             
C  0.00  0.00 17.24                                                             
C  0.00  0.00 31.03                                                             
C  0.00  0.00 44.82                                                             
C  0.00  0.00 58.62                                                             
C  0.00  4.65  3.45                                                             
C  0.00  4.65 17.24                                                             
C  0.00  4.65 31.03                                                             
C  0.00  4.65 44.82                                                             
C  0.00  4.65 58.62                                                             
C  4.03  2.32  3.45                                                             
C  4.03  2.32 17.24                                                             
C  4.03  2.32 31.03                                                             
C  4.03  2.32 44.82                                                             
C  4.03  2.32 58.62                                                             
C  8.05  0.00  3.45                                                             
C  8.05  0.00 17.24                                                             
C  8.05  0.00 31.03                                                             
C  8.05  0.00 44.82                                                             
C  8.05  0.00 58.62                                                             
C  0.00  9.30  3.45                                                             
C  0.00  9.30 17.24                                                             
C  0.00  9.30 31.03                                                             
C  0.00  9.30 44.82                                                             
C  0.00  9.30 58.62                                                             
C  4.03  6.97  3.45                                                             
C  4.03  6.97 17.24                                                             
C  4.03  6.97 31.03                                                             
C  4.03  6.97 44.82                                                             
C  4.03  6.97 58.62                                                             
C  8.05  4.65  3.45                                                             
C  8.05  4.65 17.24                                                             
C  8.05  4.65 31.03                                                             
C  8.05  4.65 44.82                                                             
C  8.05  4.65 58.62                                                             
C 12.08  2.32  3.45                                                             
C 12.08  2.32 17.24                                                             
C 12.08  2.32 31.03                                                             
C 12.08  2.32 44.82                                                             
C 12.08  2.32 58.62                                                             
C 16.10  0.00  3.45                                                             
C 16.10  0.00 17.24                                                             
C 16.10  0.00 31.03                                                             
C 16.10  0.00 44.82                                                             
C 16.10  0.00 58.62                                                             
C  0.00 13.95  3.45                                                             
C  0.00 13.95 17.24                                                             
C  0.00 13.95 31.03                                                             
C  0.00 13.95 44.82                                                             
C  0.00 13.95 58.62                                                             
C  4.03 11.62  3.45                                                             
C  4.03 11.62 17.24                                                             
C  4.03 11.62 31.03                                                             
C  4.03 11.62 44.82                                                             
C  4.03 11.62 58.62                                                             
C  8.05  9.30  3.45                                                             
C  8.05  9.30 17.24                                                             
C  8.05  9.30 31.03                                                             
C  8.05  9.30 44.82                                                             
C  8.05  9.30 58.62                                                             
C 12.08  6.97  3.45                                                             
C 12.08  6.97 17.24                                                             
C 12.08  6.97 31.03                                                             
C 12.08  6.97 44.82                                                             
C 12.08  6.97 58.62                                                             
C 16.10  4.65  3.45                                                             
C 16.10  4.65 17.24                                                             
C 16.10  4.65 31.03                                                             
C 16.10  4.65 44.82                                                             
C 16.10  4.65 58.62                                                             
C 20.13  2.32  3.45                                                             
C 20.13  2.32 17.24                                                             
C 20.13  2.32 31.03                                                             
C 20.13  2.32 44.82                                                             
C 20.13  2.32 58.62                                                             
C 24.16  0.00  3.45                                                             
C 24.16  0.00 17.24                                                             
C 24.16  0.00 31.03                                                             
C 24.16  0.00 44.82                                                             
C 24.16  0.00 58.62                                                             
C  4.03 16.27  3.45                                                             
C  4.03 16.27 17.24                                                             
C  4.03 16.27 31.03                                                             
C  4.03 16.27 44.82                                                             
C  4.03 16.27 58.62                                                             
C  8.05 13.95  3.45                                                             
C  8.05 13.95 17.24                                                             
C  8.05 13.95 31.03                                                             
C  8.05 13.95 44.82                                                             
C  8.05 13.95 58.62                                                             
C 12.08 11.62  3.45                                                             
C 12.08 11.62 17.24                                                             
C 12.08 11.62 31.03                                                             
C 12.08 11.62 44.82                                                             
C 12.08 11.62 58.62                                                             
C 16.10  9.30  3.45                                                             
C 16.10  9.30 17.24                                                             
C 16.10  9.30 31.03                                                             
C 16.10  9.30 44.82                                                             
C 16.10  9.30 58.62                                                             
C 20.13  6.97  3.45                                                             
C 20.13  6.97 17.24                                                             
C 20.13  6.97 31.03                                                             
C 20.13  6.97 44.82                                                             
C 20.13  6.97 58.62                                                             
C 24.16  4.65  3.45                                                             
C 24.16  4.65 17.24                                                             
C 24.16  4.65 31.03                                                             
C 24.16  4.65 44.82                                                             
C 24.16  4.65 58.62                                                             
C 28.18  2.32  3.45                                                             
C 28.18  2.32 17.24                                                             
C 28.18  2.32 31.03                                                             
C 28.18  2.32 44.82                                                             
C 28.18  2.32 58.62                                                             
C 12.08 16.27  3.45                                                             
C 12.08 16.27 17.24                                                             
C 12.08 16.27 31.03                                                             
C 12.08 16.27 44.82                                                             
C 12.08 16.27 58.62                                                             
C 16.10 13.95  3.45                                                             
C 16.10 13.95 17.24                                                             
C 16.10 13.95 31.03                                                             
C 16.10 13.95 44.82                                                             
C 16.10 13.95 58.62                                                             
C 20.13 11.62  3.45                                                             
C 20.13 11.62 17.24                                                             
C 20.13 11.62 31.03                                                             
C 20.13 11.62 44.82                                                             
C 20.13 11.62 58.62                                                             
C 24.16  9.30  3.45                                                             
C 24.16  9.30 17.24                                                             
C 24.16  9.30 31.03                                                             
C 24.16  9.30 44.82                                                             
C 24.16  9.30 58.62                                                             
C 28.18  6.97  3.45                                                             
C 28.18  6.97 17.24                                                             
C 28.18  6.97 31.03                                                             
C 28.18  6.97 44.82                                                             
C 28.18  6.97 58.62                                                             
C 20.13 16.27  3.45                                                             
C 20.13 16.27 17.24                                                             
C 20.13 16.27 31.03                                                             
C 20.13 16.27 44.82                                                             
C 20.13 16.27 58.62                                                             
C 24.16 13.95  3.45                                                             
C 24.16 13.95 17.24                                                             
C 24.16 13.95 31.03                                                             
C 24.16 13.95 44.82                                                             
C 24.16 13.95 58.62                                                             
C 28.18 11.62  3.45                                                             
C 28.18 11.62 17.24                                                             
C 28.18 11.62 31.03                                                             
C 28.18 11.62 44.82                                                             
C 28.18 11.62 58.62                                                             
C 28.18 16.27  3.45                                                             
C 28.18 16.27 17.24                                                             
C 28.18 16.27 31.03                                                             
C 28.18 16.27 44.82                                                             
C 28.18 16.27 58.62                                                             
C  0.00  0.00 10.34                                                             
C  0.00  0.00 24.14                                                             
C  0.00  0.00 37.93                                                             
C  0.00  0.00 51.72                                                             
C  0.00  0.00 65.51                                                             
C  0.00  4.65 10.34                                                             
C  0.00  4.65 24.14                                                             
C  0.00  4.65 37.93                                                             
C  0.00  4.65 51.72                                                             
C  0.00  4.65 65.51                                                             
C  4.03  2.32 10.34                                                             
C  4.03  2.32 24.14                                                             
C  4.03  2.32 37.93                                                             
C  4.03  2.32 51.72                                                             
C  4.03  2.32 65.51                                                             
C  8.05  0.00 10.34                                                             
C  8.05  0.00 24.14                                                             
C  8.05  0.00 37.93                                                             
C  8.05  0.00 51.72                                                             
C  8.05  0.00 65.51                                                             
C  0.00  9.30 10.34                                                             
C  0.00  9.30 24.14                                                             
C  0.00  9.30 37.93                                                             
C  0.00  9.30 51.72                                                             
C  0.00  9.30 65.51                                                             
C  4.03  6.97 10.34                                                             
C  4.03  6.97 24.14                                                             
C  4.03  6.97 37.93                                                             
C  4.03  6.97 51.72                                                             
C  4.03  6.97 65.51                                                             
C  8.05  4.65 10.34                                                             
C  8.05  4.65 24.14                                                             
C  8.05  4.65 37.93                                                             
C  8.05  4.65 51.72                                                             
C  8.05  4.65 65.51                                                             
C 12.08  2.32 10.34                                                             
C 12.08  2.32 24.14                                                             
C 12.08  2.32 37.93                                                             
C 12.08  2.32 51.72                                                             
C 12.08  2.32 65.51                                                             
C 16.10  0.00 10.34                                                             
C 16.10  0.00 24.14                                                             
C 16.10  0.00 37.93                                                             
C 16.10  0.00 51.72                                                             
C 16.10  0.00 65.51                                                             
C  0.00 13.95 10.34                                                             
C  0.00 13.95 24.14                                                             
C  0.00 13.95 37.93                                                             
C  0.00 13.95 51.72                                                             
C  0.00 13.95 65.51                                                             
C  4.03 11.62 10.34                                                             
C  4.03 11.62 24.14                                                             
C  4.03 11.62 37.93                                                             
C  4.03 11.62 51.72                                                             
C  4.03 11.62 65.51                                                             
C  8.05  9.30 10.34                                                             
C  8.05  9.30 24.14                                                             
C  8.05  9.30 37.93                                                             
C  8.05  9.30 51.72                                                             
C  8.05  9.30 65.51                                                             
C 12.08  6.97 10.34                                                             
C 12.08  6.97 24.14                                                             
C 12.08  6.97 37.93                                                             
C 12.08  6.97 51.72                                                             
C 12.08  6.97 65.51                                                             
C 16.10  4.65 10.34                                                             
C 16.10  4.65 24.14                                                             
C 16.10  4.65 37.93                                                             
C 16.10  4.65 51.72                                                             
C 16.10  4.65 65.51                                                             
C 20.13  2.32 10.34                                                             
C 20.13  2.32 24.14                                                             
C 20.13  2.32 37.93                                                             
C 20.13  2.32 51.72                                                             
C 20.13  2.32 65.51                                                             
C 24.16  0.00 10.34                                                             
C 24.16  0.00 24.14                                                             
C 24.16  0.00 37.93                                                             
C 24.16  0.00 51.72                                                             
C 24.16  0.00 65.51                                                             
C  4.03 16.27 10.34                                                             
C  4.03 16.27 24.14                                                             
C  4.03 16.27 37.93                                                             
C  4.03 16.27 51.72                                                             
C  4.03 16.27 65.51                                                             
C  8.05 13.95 10.34                                                             
C  8.05 13.95 24.14                                                             
C  8.05 13.95 37.93                                                             
C  8.05 13.95 51.72                                                             
C  8.05 13.95 65.51                                                             
C 12.08 11.62 10.34                                                             
C 12.08 11.62 24.14                                                             
C 12.08 11.62 37.93                                                             
C 12.08 11.62 51.72                                                             
C 12.08 11.62 65.51                                                             
C 16.10  9.30 10.34                                                             
C 16.10  9.30 24.14                                                             
C 16.10  9.30 37.93                                                             
C 16.10  9.30 51.72                                                             
C 16.10  9.30 65.51                                                             
C 20.13  6.97 10.34                                                             
C 20.13  6.97 24.14                                                             
C 20.13  6.97 37.93                                                             
C 20.13  6.97 51.72                                                             
C 20.13  6.97 65.51                                                             
C 24.16  4.65 10.34                                                             
C 24.16  4.65 24.14                                                             
C 24.16  4.65 37.93                                                             
C 24.16  4.65 51.72                                                             
C 24.16  4.65 65.51                                                             
C 28.18  2.32 10.34                                                             
C 28.18  2.32 24.14                                                             
C 28.18  2.32 37.93                                                             
C 28.18  2.32 51.72                                                             
C 28.18  2.32 65.51                                                             
C 12.08 16.27 10.34                                                             
C 12.08 16.27 24.14                                                             
C 12.08 16.27 37.93                                                             
C 12.08 16.27 51.72                                                             
C 12.08 16.27 65.51                                                             
C 16.10 13.95 10.34                                                             
C 16.10 13.95 24.14                                                             
C 16.10 13.95 37.93                                                             
C 16.10 13.95 51.72                                                             
C 16.10 13.95 65.51                                                             
C 20.13 11.62 10.34                                                             
C 20.13 11.62 24.14                                                             
C 20.13 11.62 37.93                                                             
C 20.13 11.62 51.72                                                             
C 20.13 11.62 65.51                                                             
C 24.16  9.30 10.34                                                             
C 24.16  9.30 24.14                                                             
C 24.16  9.30 37.93                                                             
C 24.16  9.30 51.72                                                             
C 24.16  9.30 65.51                                                             
C 28.18  6.97 10.34                                                             
C 28.18  6.97 24.14                                                             
C 28.18  6.97 37.93                                                             
C 28.18  6.97 51.72                                                             
C 28.18  6.97 65.51                                                             
C 20.13 16.27 10.34                                                             
C 20.13 16.27 24.14                                                             
C 20.13 16.27 37.93                                                             
C 20.13 16.27 51.72                                                             
C 20.13 16.27 65.51                                                             
C 24.16 13.95 10.34                                                             
C 24.16 13.95 24.14                                                             
C 24.16 13.95 37.93                                                             
C 24.16 13.95 51.72                                                             
C 24.16 13.95 65.51                                                             
C 28.18 11.62 10.34                                                             
C 28.18 11.62 24.14                                                             
C 28.18 11.62 37.93                                                             
C 28.18 11.62 51.72                                                             
C 28.18 11.62 65.51                                                             
C 28.18 16.27 10.34                                                             
C 28.18 16.27 24.14                                                             
C 28.18 16.27 37.93                                                             
C 28.18 16.27 51.72                                                             
C 28.18 16.27 65.51                                                             
C  1.34  2.32  3.45                                                             
C  1.34  2.32 17.24                                                             
C  1.34  2.32 31.03                                                             
C  1.34  2.32 44.82                                                             
C  1.34  2.32 58.62                                                             
C  5.37  0.00  3.45                                                             
C  5.37  0.00 17.24                                                             
C  5.37  0.00 31.03                                                             
C  5.37  0.00 44.82                                                             
C  5.37  0.00 58.62                                                             
C  1.34  6.97  3.45                                                             
C  1.34  6.97 17.24                                                             
C  1.34  6.97 31.03                                                             
C  1.34  6.97 44.82                                                             
C  1.34  6.97 58.62                                                             
C  5.37  4.65  3.45                                                             
C  5.37  4.65 17.24                                                             
C  5.37  4.65 31.03                                                             
C  5.37  4.65 44.82                                                             
C  5.37  4.65 58.62                                                             
C  9.39  2.32  3.45                                                             
C  9.39  2.32 17.24                                                             
C  9.39  2.32 31.03                                                             
C  9.39  2.32 44.82                                                             
C  9.39  2.32 58.62                                                             
C 13.42  0.00  3.45                                                             
C 13.42  0.00 17.24                                                             
C 13.42  0.00 31.03                                                             
C 13.42  0.00 44.82                                                             
C 13.42  0.00 58.62                                                             
C  1.34 11.62  3.45                                                             
C  1.34 11.62 17.24                                                             
C  1.34 11.62 31.03                                                             
C  1.34 11.62 44.82                                                             
C  1.34 11.62 58.62                                                             
C  5.37  9.30  3.45                                                             
C  5.37  9.30 17.24                                                             
C  5.37  9.30 31.03                                                             
C  5.37  9.30 44.82                                                             
C  5.37  9.30 58.62                                                             
C  9.39  6.97  3.45                                                             
C  9.39  6.97 17.24                                                             
C  9.39  6.97 31.03                                                             
C  9.39  6.97 44.82                                                             
C  9.39  6.97 58.62                                                             
C 13.42  4.65  3.45                                                             
C 13.42  4.65 17.24                                                             
C 13.42  4.65 31.03                                                             
C 13.42  4.65 44.82                                                             
C 13.42  4.65 58.62                                                             
C 17.45  2.32  3.45                                                             
C 17.45  2.32 17.24                                                             
C 17.45  2.32 31.03                                                             
C 17.45  2.32 44.82                                                             
C 17.45  2.32 58.62                                                             
C 21.47  0.00  3.45                                                             
C 21.47  0.00 17.24                                                             
C 21.47  0.00 31.03                                                             
C 21.47  0.00 44.82                                                             
C 21.47  0.00 58.62                                                             
C  1.34 16.27  3.45                                                             
C  1.34 16.27 17.24                                                             
C  1.34 16.27 31.03                                                             
C  1.34 16.27 44.82                                                             
C  1.34 16.27 58.62                                                             
C  5.37 13.95  3.45                                                             
C  5.37 13.95 17.24                                                             
C  5.37 13.95 31.03                                                             
C  5.37 13.95 44.82                                                             
C  5.37 13.95 58.62                                                             
C  9.39 11.62  3.45                                                             
C  9.39 11.62 17.24                                                             
C  9.39 11.62 31.03                                                             
C  9.39 11.62 44.82                                                             
C  9.39 11.62 58.62                                                             
C 13.42  9.30  3.45                                                             
C 13.42  9.30 17.24                                                             
C 13.42  9.30 31.03                                                             
C 13.42  9.30 44.82                                                             
C 13.42  9.30 58.62                                                             
C 17.45  6.97  3.45                                                             
C 17.45  6.97 17.24                                                             
C 17.45  6.97 31.03                                                             
C 17.45  6.97 44.82                                                             
C 17.45  6.97 58.62                                                             
C 21.47  4.65  3.45                                                             
C 21.47  4.65 17.24                                                             
C 21.47  4.65 31.03                                                             
C 21.47  4.65 44.82                                                             
C 21.47  4.65 58.62                                                             
C 25.50  2.32  3.45                                                             
C 25.50  2.32 17.24                                                             
C 25.50  2.32 31.03                                                             
C 25.50  2.32 44.82                                                             
C 25.50  2.32 58.62                                                             
C 29.52  0.00  3.45                                                             
C 29.52  0.00 17.24                                                             
C 29.52  0.00 31.03                                                             
C 29.52  0.00 44.82                                                             
C 29.52  0.00 58.62                                                             
C  9.39 16.27  3.45                                                             
C  9.39 16.27 17.24                                                             
C  9.39 16.27 31.03                                                             
C  9.39 16.27 44.82                                                             
C  9.39 16.27 58.62                                                             
C 13.42 13.95  3.45                                                             
C 13.42 13.95 17.24                                                             
C 13.42 13.95 31.03                                                             
C 13.42 13.95 44.82                                                             
C 13.42 13.95 58.62                                                             
C 17.45 11.62  3.45                                                             
C 17.45 11.62 17.24                                                             
C 17.45 11.62 31.03                                                             
C 17.45 11.62 44.82                                                             
C 17.45 11.62 58.62                                                             
C 21.47  9.30  3.45                                                             
C 21.47  9.30 17.24                                                             
C 21.47  9.30 31.03                                                             
C 21.47  9.30 44.82                                                             
C 21.47  9.30 58.62                                                             
C 25.50  6.97  3.45                                                             
C 25.50  6.97 17.24                                                             
C 25.50  6.97 31.03                                                             
C 25.50  6.97 44.82                                                             
C 25.50  6.97 58.62                                                             
C 29.52  4.65  3.45                                                             
C 29.52  4.65 17.24                                                             
C 29.52  4.65 31.03                                                             
C 29.52  4.65 44.82                                                             
C 29.52  4.65 58.62                                                             
C 17.45 16.27  3.45                                                             
C 17.45 16.27 17.24                                                             
C 17.45 16.27 31.03                                                             
C 17.45 16.27 44.82                                                             
C 17.45 16.27 58.62                                                             
C 21.47 13.95  3.45                                                             
C 21.47 13.95 17.24                                                             
C 21.47 13.95 31.03                                                             
C 21.47 13.95 44.82                                                             
C 21.47 13.95 58.62                                                             
C 25.50 11.62  3.45                                                             
C 25.50 11.62 17.24                                                             
C 25.50 11.62 31.03                                                             
C 25.50 11.62 44.82                                                             
C 25.50 11.62 58.62                                                             
C 29.52  9.30  3.45                                                             
C 29.52  9.30 17.24                                                             
C 29.52  9.30 31.03                                                             
C 29.52  9.30 44.82                                                             
C 29.52  9.30 58.62                                                             
C 25.50 16.27  3.45                                                             
C 25.50 16.27 17.24                                                             
C 25.50 16.27 31.03                                                             
C 25.50 16.27 44.82                                                             
C 25.50 16.27 58.62                                                             
C 29.52 13.95  3.45                                                             
C 29.52 13.95 17.24                                                             
C 29.52 13.95 31.03                                                             
C 29.52 13.95 44.82                                                             
C 29.52 13.95 58.62                                                             
C  2.68  0.00 10.34                                                             
C  2.68  0.00 24.14                                                             
C  2.68  0.00 37.93                                                             
C  2.68  0.00 51.72                                                             
C  2.68  0.00 65.51                                                             
C  2.68  4.65 10.34                                                             
C  2.68  4.65 24.14                                                             
C  2.68  4.65 37.93                                                             
C  2.68  4.65 51.72                                                             
C  2.68  4.65 65.51                                                             
C  6.71  2.32 10.34                                                             
C  6.71  2.32 24.14                                                             
C  6.71  2.32 37.93                                                             
C  6.71  2.32 51.72                                                             
C  6.71  2.32 65.51                                                             
C 10.74  0.00 10.34                                                             
C 10.74  0.00 24.14                                                             
C 10.74  0.00 37.93                                                             
C 10.74  0.00 51.72                                                             
C 10.74  0.00 65.51                                                             
C  2.68  9.30 10.34                                                             
C  2.68  9.30 24.14                                                             
C  2.68  9.30 37.93                                                             
C  2.68  9.30 51.72                                                             
C  2.68  9.30 65.51                                                             
C  6.71  6.97 10.34                                                             
C  6.71  6.97 24.14                                                             
C  6.71  6.97 37.93                                                             
C  6.71  6.97 51.72                                                             
C  6.71  6.97 65.51                                                             
C 10.74  4.65 10.34                                                             
C 10.74  4.65 24.14                                                             
C 10.74  4.65 37.93                                                             
C 10.74  4.65 51.72                                                             
C 10.74  4.65 65.51                                                             
C 14.76  2.32 10.34                                                             
C 14.76  2.32 24.14                                                             
C 14.76  2.32 37.93                                                             
C 14.76  2.32 51.72                                                             
C 14.76  2.32 65.51                                                             
C 18.79  0.00 10.34                                                             
C 18.79  0.00 24.14                                                             
C 18.79  0.00 37.93                                                             
C 18.79  0.00 51.72                                                             
C 18.79  0.00 65.51                                                             
C  2.68 13.95 10.34                                                             
C  2.68 13.95 24.14                                                             
C  2.68 13.95 37.93                                                             
C  2.68 13.95 51.72                                                             
C  2.68 13.95 65.51                                                             
C  6.71 11.62 10.34                                                             
C  6.71 11.62 24.14                                                             
C  6.71 11.62 37.93                                                             
C  6.71 11.62 51.72                                                             
C  6.71 11.62 65.51                                                             
C 10.74  9.30 10.34                                                             
C 10.74  9.30 24.14                                                             
C 10.74  9.30 37.93                                                             
C 10.74  9.30 51.72                                                             
C 10.74  9.30 65.51                                                             
C 14.76  6.97 10.34                                                             
C 14.76  6.97 24.14                                                             
C 14.76  6.97 37.93                                                             
C 14.76  6.97 51.72                                                             
C 14.76  6.97 65.51                                                             
C 18.79  4.65 10.34                                                             
C 18.79  4.65 24.14                                                             
C 18.79  4.65 37.93                                                             
C 18.79  4.65 51.72                                                             
C 18.79  4.65 65.51                                                             
C 22.81  2.32 10.34                                                             
C 22.81  2.32 24.14                                                             
C 22.81  2.32 37.93                                                             
C 22.81  2.32 51.72                                                             
C 22.81  2.32 65.51                                                             
C 26.84  0.00 10.34                                                             
C 26.84  0.00 24.14                                                             
C 26.84  0.00 37.93                                                             
C 26.84  0.00 51.72                                                             
C 26.84  0.00 65.51                                                             
C  6.71 16.27 10.34                                                             
C  6.71 16.27 24.14                                                             
C  6.71 16.27 37.93                                                             
C  6.71 16.27 51.72                                                             
C  6.71 16.27 65.51                                                             
C 10.74 13.95 10.34                                                             
C 10.74 13.95 24.14                                                             
C 10.74 13.95 37.93                                                             
C 10.74 13.95 51.72                                                             
C 10.74 13.95 65.51                                                             
C 14.76 11.62 10.34                                                             
C 14.76 11.62 24.14                                                             
C 14.76 11.62 37.93                                                             
C 14.76 11.62 51.72                                                             
C 14.76 11.62 65.51                                                             
C 18.79  9.30 10.34                                                             
C 18.79  9.30 24.14                                                             
C 18.79  9.30 37.93                                                             
C 18.79  9.30 51.72                                                             
C 18.79  9.30 65.51                                                             
C 22.81  6.97 10.34                                                             
C 22.81  6.97 24.14                                                             
C 22.81  6.97 37.93                                                             
C 22.81  6.97 51.72                                                             
C 22.81  6.97 65.51                                                             
C 26.84  4.65 10.34                                                             
C 26.84  4.65 24.14                                                             
C 26.84  4.65 37.93                                                             
C 26.84  4.65 51.72                                                             
C 26.84  4.65 65.51                                                             
C 30.86  2.32 10.34                                                             
C 30.86  2.32 24.14                                                             
C 30.86  2.32 37.93                                                             
C 30.86  2.32 51.72                                                             
C 30.86  2.32 65.51                                                             
C 14.76 16.27 10.34                                                             
C 14.76 16.27 24.14                                                             
C 14.76 16.27 37.93                                                             
C 14.76 16.27 51.72                                                             
C 14.76 16.27 65.51                                                             
C 18.79 13.95 10.34                                                             
C 18.79 13.95 24.14                                                             
C 18.79 13.95 37.93                                                             
C 18.79 13.95 51.72                                                             
C 18.79 13.95 65.51                                                             
C 22.81 11.62 10.34                                                             
C 22.81 11.62 24.14                                                             
C 22.81 11.62 37.93                                                             
C 22.81 11.62 51.72                                                             
C 22.81 11.62 65.51                                                             
C 26.84  9.30 10.34                                                             
C 26.84  9.30 24.14                                                             
C 26.84  9.30 37.93                                                             
C 26.84  9.30 51.72                                                             
C 26.84  9.30 65.51                                                             
C 30.86  6.97 10.34                                                             
C 30.86  6.97 24.14                                                             
C 30.86  6.97 37.93                                                             
C 30.86  6.97 51.72                                                             
C 30.86  6.97 65.51                                                             
C 22.81 16.27 10.34                                                             
C 22.81 16.27 24.14                                                             
C 22.81 16.27 37.93                                                             
C 22.81 16.27 51.72                                                             
C 22.81 16.27 65.51                                                             
C 26.84 13.95 10.34                                                             
C 26.84 13.95 24.14                                                             
C 26.84 13.95 37.93                                                             
C 26.84 13.95 51.72                                                             
C 26.84 13.95 65.51                                                             
C 30.86 11.62 10.34                                                             
C 30.86 11.62 24.14                                                             
C 30.86 11.62 37.93                                                             
C 30.86 11.62 51.72                                                             
C 30.86 11.62 65.51                                                             
C 30.86 16.27 10.34                                                             
C 30.86 16.27 24.14                                                             
C 30.86 16.27 37.93                                                             
C 30.86 16.27 51.72                                                             
C 30.86 16.27 65.51                                                             
%ENDBLOCK POSITIONS_ABS                                                         

--------------------------------------------------------------------------------
-------------------------------- END INPUT FILE --------------------------------
--------------------------------------------------------------------------------


 
<<<<<<<<<<<<<<<<<<<<<<<<<<<<<<<<< Full system >>>>>>>>>>>>>>>>>>>>>>>>>>>>>>>>>>
<<<<<<<<<<<<<<<<<<<<<<<<<<< PAW Dataset information >>>>>>>>>>>>>>>>>>>>>>>>>>>
File: ~/pp/paw/c_pbe_abinit.paw; rc = 1.25 bohr; shape type =  3; rshape = 1.25 bohr;
  Atomic number:  6;  ionic charge:  4.000000
    Partial Wave 1: l = 0
    Partial Wave 2: l = 0
    Partial Wave 3: l = 1
    Partial Wave 4: l = 1
  Core charge supplied for Nonlinear Core Corrections
<<<<<<<<<<<<<<<<<<<<<<<<<<<<<<<<<<<<<<< >>>>>>>>>>>>>>>>>>>>>>>>>>>>>>>>>>>>>>>

-------------------------- Atom counting information ---------------------------
Symbol    Natoms    Nngwfs    Nprojs
  C        640      2560      5120
.......   ......    ......    ......
Totals:    640      2560      5120
--------------------------------------------------------------------------------

=============================== PSINC grid sizes ===============================
                      Simulation cell:   63 x  35 x 136
                              FFT-box:   63 x  35 x 117
                                  PPD:    7 x   5 x   1
Grid space d1=  0.511269841270a0 (KE cutoff=  29.06054Eh = 790.77748eV)
Grid space d2=  0.531142857143a0 (KE cutoff=  26.92659Eh = 732.70972eV)
Grid space d3=  0.507058823529a0 (KE cutoff=  29.54523Eh = 803.96650eV)
================================================================================
  
WARNING in cell_grid_distribute:
Average of less than one 23-slab per node, so workload cannot be
equally balanced between nodes.

********************* Fourier parallelisation information **********************
       Coarse grid (whole simulation cell) dimensions:     63    35   136
          Real-space ('12') slabs/node (min max mean):      3     4     3
         Recip-space ('23') slabs/node (min max mean):      0     1     0
********************************************************************************

********************* Fourier parallelisation information **********************
       Double grid (whole simulation cell) dimensions:    126    70   272
          Real-space ('12') slabs/node (min max mean):      6     7     6
         Recip-space ('23') slabs/node (min max mean):      1     2     1
********************************************************************************

Atom SCF Calculation for C  : Z (AE atom) =   6 : Z (PS atom) =   4
Config String: 2s2 2p2
Orbitals (num,occ):  2     2.00 2.00
Orbitals   (num,l):  2        0    1
Real-space Grid (nr,dr,rmax): 1293    0.0069659443    9.0000000000
Spherical Bessel Basis (nsws,lmax,cutoff):   37    2  161.4736382572
Confining potential (l,width,scale):  0    3.0000000000  100.0000000000
Confining potential (l,width,scale):  1    3.0000000000  100.0000000000
  1         -5.4966243538   -1.3415066196    4.5135257941   -1.6613421942
  2         -5.4660395227   -1.4172174419    4.4326892861   -1.6365362708
  3         -5.4759582348   -1.4337557188    4.4144498970   -1.6324663609
  4         -5.4843804720   -1.4365219414    4.4114201180   -1.6322033818
  5         -5.4882713954   -1.4381734139    4.4096331461   -1.6320227940
  6         -5.4902132675   -1.4390636620    4.4086785626   -1.6319270645
  7         -5.4912093711   -1.4395303631    4.4081823351   -1.6318789226
  8         -5.4917264140   -1.4397726342    4.4079268833   -1.6318551036
  9         -5.4919964206   -1.4398979410    4.4077958777   -1.6318434025
 10         -5.4921379132   -1.4399626875    4.4077287721   -1.6318376788
 11         -5.4922122245   -1.4399961532    4.4076943935   -1.6318348878
 12         -5.4922513136   -1.4400134684    4.4076767658   -1.6318335308
 13         -5.4922719001   -1.4400224400    4.4076677156   -1.6318328728
 14         -5.4922827535   -1.4400270959    4.4076630621   -1.6318325547
 15         -5.4922884809   -1.4400295164    4.4076606653   -1.6318324014
 16         -5.4922915059   -1.4400307770    4.4076594286   -1.6318323279
 17         -5.4922931051   -1.4400314347    4.4076587894   -1.6318322927
 18         -5.4922939512   -1.4400317785    4.4076584583   -1.6318322760
 19         -5.4922943993   -1.4400319585    4.4076582865   -1.6318322681
 20         -5.4922946368   -1.4400320529    4.4076581972   -1.6318322644
 21         -5.4922947627   -1.4400321025    4.4076581507   -1.6318322627
 22         -5.4922948296   -1.4400321287    4.4076581265   -1.6318322619
Atom SCF converged after  22 iterations to a total energy of     -5.49229483

Determining parallel strategy ...
... using space-filling curve
... NGWF load balancing: max     64;  min     64;  average     64
... Projector load balancing: max    128;  min    128;  average    128
... done
Calculating Ewald energy ...
              Ewald: real-space energy =    9482.660030
        Ewald: reciprocal-space energy =       0.258173
         Ewald: (sum_charge)**2 Energy =   11001.050404
         Ewald: (sum_charge**2) Energy =     869.709398
                          Ewald Energy =   -2387.841599
Basis initialisation ...... NGWF spheres initialised
... Projector spheres initialised
... NGWF tight boxes initialised
... Projector tight boxes initialised
... Tight-boxes gathered
... NGWF basis size (local,global):     692724  27900064
... PAW projector initialisation
... done

============================= Charge Augmentation ==============================
                           Aug box size:   11 x  11 x  11
================================================================================

========================== Sparse matrix information ===========================
                        Overlap matrix filling:  40.94%
                        Density kernel filling: 100.00%
              NGWF-Proj overlap matrix filling:  12.19%
                    Aug Overlap matrix filling:  47.03%
                    Hamiltonian matrix filling:  47.03%
                  NGWF diagonal matrix filling:   0.16%
                             KS matrix filling: 100.00% 
                           KSKS matrix filling: 100.00% 
================================================================================

Sparse matrix initialisation ... done
NGWF initialisation ...... done
============ Calculation of NGWF S^-1 using Hotelling algorithm ================ 
         Iteration  |  Frobenius norm and Maximum abs value    (of I-S*S_n^-1)   
               1       0.49000815E+02     0.97517188E+00
               2       0.47735130E+02     0.95222068E+00
               3       0.45851418E+02     0.91103506E+00
               4       0.43428735E+02     0.84293653E+00
               5       0.40538474E+02     0.74240612E+00
               6       0.37189379E+02     0.67620981E+00
               7       0.33712978E+02     0.62862702E+00
               8       0.30384050E+02     0.58824371E+00
               9       0.26781158E+02     0.54288006E+00
              10       0.22193639E+02     0.47118600E+00
              11       0.16228625E+02     0.35835343E+00
              12       0.94353366E+01     0.21244986E+00
              13       0.36617034E+01     0.80011716E-01
              14       0.66348683E+00     0.13141302E-01
              15       0.26457817E-01     0.44166741E-03
              16       0.56611769E-04     0.67059357E-06
              17       0.39677579E-09     0.28117508E-11
              18       0.71399853E-13     0.41078252E-14
================================================================================
Calculating core density ...
================================= Core Density =================================
               Core den box size:   21 x  21 x  21
================================================================================
 ... done
Up spin density kernel initialisation ...... done

Writing density kernel to file "3.6491432_GO_manual_4x64graphite.dkn" ... done

>>> Optimising kernel for current NGWFs:

--------------------------- Ensemble-DFT optimisation --------------------------
Running ScaLAPACK on   40 processor(s).

--------------------------------------------------------------------------------
  Iter                              Commutator    Free_energy(A=E-TS)     DeltaA
#    0                          0.000039035022   -3654.60337725667023  -3.65E+03

Step                       =       0.381966011250
Energy                     =   -3654.603349879460
Entropy (-TS)              =      -0.000027377232
Free energy (A=E-TS)       =   -3654.603377256670
Est. 0K Energy 0.5*(E+A)   =   -3654.603363568065
Residual Non-orthogonality =       0.000000000000
Residual N_electrons       =       0.000000000022

Spin          Integrated_Ne            Fermi_level     Delta_Fermi_level
   1      2559.999999999874         0.172536298640              1.73E-01

                           Spin 1          
     Orb      H-eigenvalues     Occupancies
       1 |    -0.5519376423    1.0000000000 | 
                          ------
    1276 |     0.1376611439    0.9999835094 | 
    1277 |     0.1382704746    0.9999800107 | 
    1278 |     0.1382887596    0.9999798949 | 
    1279 |     0.1384561220    0.9999788038 | 
    1280 |     0.1390833377    0.9999741613 | 
                 - Gap at zero temperature -
    1281 |     0.2084215761    0.0000119870 | 
    1282 |     0.2084282530    0.0000119618 | 
    1283 |     0.2084400335    0.0000119174 | 
    1284 |     0.2086301913    0.0000112228 | 
    1285 |     0.2086461728    0.0000111663 | 
                          ------
    2560 |     1.0066677916    0.0000000000 | 

                       |  Abs_value |  Threshold | Converged
     Delta_Free_energy |   3.65E+03 |   1.00E-06 |        No
     Delta_Energy      |   3.65E+03 |   1.00E-04 |        No
     Delta_Entropy     |   2.74E-05 |   1.00E-04 |       Yes
     Commutator        |   3.90E-05 |   1.00E-05 |        No
     Delta_Fermi_level |   1.73E-01 |   1.00E-03 |        No

  Line search of the free energy minimum:
  Step_type        Step             Free_energy   Predicted_free_energy
.   Initial    0.000000    -3654.60337725667023
.    Trial1    0.381966    -3654.60500025153851
.    Trial2    0.618034    -3654.60535539871489
. Quadratic    0.669383    -3654.60536751541076    -3654.60536710818997

--------------------------------------------------------------------------------
  Iter                              Commutator    Free_energy(A=E-TS)     DeltaA
#    1                          0.000021207388   -3654.60536751541076  -1.99E-03

Step                       =       0.669383123828
Energy                     =   -3654.605340849491
Entropy (-TS)              =      -0.000026666238
Free energy (A=E-TS)       =   -3654.605367515411
Est. 0K Energy 0.5*(E+A)   =   -3654.605354182451
Residual Non-orthogonality =       0.000000000000
Residual N_electrons       =       0.000000000319

Spin          Integrated_Ne            Fermi_level     Delta_Fermi_level
   1      2559.999999998150         0.172196491782             -3.40E-04

                           Spin 1          
     Orb      H-eigenvalues     Occupancies
       1 |    -0.5545035012    1.0000000000 | 
                          ------
    1276 |     0.1373204210    0.9999835142 | 
    1277 |     0.1377609669    0.9999810536 | 
    1278 |     0.1377752058    0.9999809682 | 
    1279 |     0.1381189661    0.9999787861 | 
    1280 |     0.1385731043    0.9999755150 | 
                 - Gap at zero temperature -
    1281 |     0.2080962402    0.0000119324 | 
    1282 |     0.2081049052    0.0000118998 | 
    1283 |     0.2081209325    0.0000118397 | 
    1284 |     0.2083027803    0.0000111790 | 
    1285 |     0.2083326732    0.0000110739 | 
                          ------
    2560 |     1.0055354889    0.0000000000 | 

                       |  Abs_value |  Threshold | Converged
     Delta_Free_energy |   1.99E-03 |   1.00E-06 |        No
     Delta_Energy      |   1.99E-03 |   1.00E-04 |        No
     Delta_Entropy     |   7.11E-07 |   1.00E-04 |       Yes
     Commutator        |   2.12E-05 |   1.00E-05 |        No
     Delta_Fermi_level |   3.40E-04 |   1.00E-03 |       Yes

  Line search of the free energy minimum:
  Step_type        Step             Free_energy   Predicted_free_energy
.   Initial    0.000000    -3654.60536751541076
.    Trial1    0.669383    -3654.60446226327122
.    Trial2    0.255682    -3654.60577913963152
. Quadratic    0.240258    -3654.60578088709735    -3654.60578084299959

--------------------------------------------------------------------------------
  Iter                              Commutator    Free_energy(A=E-TS)     DeltaA
#    2                          0.000010304077   -3654.60578088709735  -4.13E-04

Step                       =       0.240258029853
Energy                     =   -3654.605754319257
Entropy (-TS)              =      -0.000026568131
Free energy (A=E-TS)       =   -3654.605780887097
Est. 0K Energy 0.5*(E+A)   =   -3654.605767603177
Residual Non-orthogonality =       0.000000000000
Residual N_electrons       =       0.000000000291

Spin          Integrated_Ne            Fermi_level     Delta_Fermi_level
   1      2559.999999998312         0.172159725666             -3.68E-05

                           Spin 1          
     Orb      H-eigenvalues     Occupancies
       1 |    -0.5548077486    1.0000000000 | 
                          ------
    1276 |     0.1372360277    0.9999837602 | 
    1277 |     0.1377391111    0.9999809642 | 
    1278 |     0.1377530340    0.9999808803 | 
    1279 |     0.1380336054    0.9999791091 | 
    1280 |     0.1385500172    0.9999754090 | 
                 - Gap at zero temperature -
    1281 |     0.2080954458    0.0000117976 | 
    1282 |     0.2081024807    0.0000117714 | 
    1283 |     0.2081195330    0.0000117082 | 
    1284 |     0.2083069077    0.0000110355 | 
    1285 |     0.2083344289    0.0000109401 | 
                          ------
    2560 |     1.0053985208    0.0000000000 | 

                       |  Abs_value |  Threshold | Converged
     Delta_Free_energy |   4.13E-04 |   1.00E-06 |        No
     Delta_Energy      |   4.13E-04 |   1.00E-04 |        No
     Delta_Entropy     |   9.81E-08 |   1.00E-04 |       Yes
     Commutator        |   1.03E-05 |   1.00E-05 |        No
     Delta_Fermi_level |   3.68E-05 |   1.00E-03 |       Yes

  Line search of the free energy minimum:
  Step_type        Step             Free_energy   Predicted_free_energy
.   Initial    0.000000    -3654.60578088709735
.    Trial1    0.240258    -3654.60586619915239
.    Trial2    0.530454    -3654.60587572307713
. Quadratic    0.412366    -3654.60588418122506    -3654.60588419488022

--------------------------------------------------------------------------------
  Iter                              Commutator    Free_energy(A=E-TS)     DeltaA
#    3                          0.000006878365   -3654.60588418122506  -1.03E-04

Step                       =       0.412366038608
Energy                     =   -3654.605857741190
Entropy (-TS)              =      -0.000026439986
Free energy (A=E-TS)       =   -3654.605884181225
Est. 0K Energy 0.5*(E+A)   =   -3654.605870961208
Residual Non-orthogonality =       0.000000000000
Residual N_electrons       =      -0.000000000049

Spin          Integrated_Ne            Fermi_level     Delta_Fermi_level
   1      2560.000000000282         0.172110612308             -4.91E-05

                           Spin 1          
     Orb      H-eigenvalues     Occupancies
       1 |    -0.5551945848    1.0000000000 | 
                          ------
    1276 |     0.1371511672    0.9999839425 | 
    1277 |     0.1376875353    0.9999809790 | 
    1278 |     0.1377011338    0.9999808972 | 
    1279 |     0.1379481910    0.9999793472 | 
    1280 |     0.1384975914    0.9999754347 | 
                 - Gap at zero temperature -
    1281 |     0.2080747980    0.0000116920 | 
    1282 |     0.2080805088    0.0000116710 | 
    1283 |     0.2080982125    0.0000116059 | 
    1284 |     0.2082903217    0.0000109228 | 
    1285 |     0.2083149355    0.0000108382 | 
                          ------
    2560 |     1.0052441790    0.0000000000 | 

                       |  Abs_value |  Threshold | Converged
     Delta_Free_energy |   1.03E-04 |   1.00E-06 |        No
     Delta_Energy      |   1.03E-04 |   1.00E-04 |        No
     Delta_Entropy     |   1.28E-07 |   1.00E-04 |       Yes
     Commutator        |   6.88E-06 |   1.00E-05 |       Yes
     Delta_Fermi_level |   4.91E-05 |   1.00E-03 |       Yes

  Line search of the free energy minimum:
  Step_type        Step             Free_energy   Predicted_free_energy
.   Initial    0.000000    -3654.60588418122506
.    Trial1    0.412366    -3654.60590951851782
.    Trial2    0.636822    -3654.60583622181503
. Quadratic    0.256607    -3654.60592431527448    -3654.60592429989492

--------------------------------------------------------------------------------
  Iter                              Commutator    Free_energy(A=E-TS)     DeltaA
#    4                          0.000004334822   -3654.60592431527448  -4.01E-05

Step                       =       0.256607128091
Energy                     =   -3654.605897922064
[...]
 C   275 -- C   555       -0.10      5.37000
 C   274 -- C   554       -0.10      5.37000
 C   273 -- C   553       -0.10      5.37000
 C   272 -- C   552       -0.10      5.37000
 C   271 -- C   551       -0.10      5.37000
 C   270 -- C   550       -0.10      5.37000
 C   269 -- C   549       -0.10      5.37000
 C   268 -- C   548       -0.10      5.37000
 C   267 -- C   547       -0.10      5.37000
 C   266 -- C   546       -0.10      5.37000
 C   130 -- C   465       -0.10      5.37000
 C   129 -- C   464       -0.10      5.37000
 C   128 -- C   463       -0.10      5.37000
 C   127 -- C   462       -0.10      5.37000
 C   126 -- C   461       -0.10      5.37000
 C   240 -- C   525       -0.10      5.37000
 C   239 -- C   524       -0.10      5.37000
 C   238 -- C   523       -0.10      5.37000
 C   237 -- C   522       -0.10      5.37000
 C   236 -- C   521       -0.10      5.37000
 C    23 -- C   478       -0.10      5.37202
 C    49 -- C   469       -0.10      5.37202
 C    48 -- C   468       -0.10      5.37202
 C    47 -- C   467       -0.10      5.37202
 C    22 -- C   477       -0.10      5.37202
 C    46 -- C   466       -0.10      5.37202
 C    21 -- C   476       -0.10      5.37202
 C    25 -- C   480       -0.10      5.37202
 C    24 -- C   479       -0.10      5.37202
 C    50 -- C   470       -0.10      5.37202
 C    24 -- C   449       -0.10      5.37202
 C     6 -- C   416       -0.10      5.37202
 C    23 -- C   448       -0.10      5.37202
 C    22 -- C   447       -0.10      5.37202
 C    10 -- C   470       -0.10      5.37202
 C     5 -- C   450       -0.10      5.37202
 C    21 -- C   446       -0.10      5.37202
 C    10 -- C   420       -0.10      5.37202
 C     9 -- C   469       -0.10      5.37202
 C     9 -- C   419       -0.10      5.37202
 C     8 -- C   468       -0.10      5.37202
 C     4 -- C   449       -0.10      5.37202
 C     8 -- C   418       -0.10      5.37202
 C   285 -- C   580       -0.10      5.37202
 C   284 -- C   579       -0.10      5.37202
 C   283 -- C   578       -0.10      5.37202
 C   282 -- C   577       -0.10      5.37202
 C   281 -- C   576       -0.10      5.37202
 C     2 -- C   447       -0.10      5.37202
 C     7 -- C   467       -0.10      5.37202
 C   260 -- C   605       -0.10      5.37202
 C   259 -- C   604       -0.10      5.37202
 C   258 -- C   603       -0.10      5.37202
 C   257 -- C   602       -0.10      5.37202
 C   256 -- C   601       -0.10      5.37202
 C     7 -- C   417       -0.10      5.37202
 C     1 -- C   446       -0.10      5.37202
 C     6 -- C   466       -0.10      5.37202
 C    25 -- C   450       -0.10      5.37202
 C     3 -- C   448       -0.10      5.37202
 C   219 -- C   569       -0.10      5.37202
 C   218 -- C   568       -0.10      5.37202
 C   217 -- C   567       -0.10      5.37202
 C   216 -- C   566       -0.10      5.37202
 C   250 -- C   540       -0.10      5.37202
 C   249 -- C   539       -0.10      5.37202
 C   248 -- C   538       -0.10      5.37202
 C   247 -- C   537       -0.10      5.37202
 C   246 -- C   536       -0.10      5.37202
 C   220 -- C   570       -0.10      5.37202
 C   205 -- C   550       -0.10      5.37202
 C   204 -- C   549       -0.10      5.37202
 C   203 -- C   548       -0.10      5.37202
 C   202 -- C   547       -0.10      5.37202
 C   201 -- C   546       -0.10      5.37202
 C    95 -- C   365       -0.10      5.37202
 C    94 -- C   364       -0.10      5.37202
 C    93 -- C   363       -0.10      5.37202
 C    92 -- C   362       -0.10      5.37202
 C    91 -- C   361       -0.10      5.37202
 C    65 -- C   395       -0.10      5.37202
 C    64 -- C   394       -0.10      5.37202
 C    63 -- C   393       -0.10      5.37202
 C    30 -- C   355       -0.10      5.37202
 C    62 -- C   392       -0.10      5.37202
 C    61 -- C   391       -0.10      5.37202
 C    29 -- C   354       -0.10      5.37202
 C   260 -- C   550       -0.10      5.37202
 C   259 -- C   549       -0.10      5.37202
 C    28 -- C   353       -0.10      5.37202
 C   258 -- C   548       -0.10      5.37202
 C   257 -- C   547       -0.10      5.37202
 C   256 -- C   546       -0.10      5.37202
 C    27 -- C   352       -0.10      5.37202
 C    26 -- C   351       -0.10      5.37202
 C    55 -- C   335       -0.10      5.37202
 C    54 -- C   334       -0.10      5.37202
 C    53 -- C   333       -0.10      5.37202
 C   230 -- C   580       -0.10      5.37202
 C   230 -- C   525       -0.10      5.37202
 C   229 -- C   579       -0.10      5.37202
 C   229 -- C   524       -0.10      5.37202
 C   228 -- C   578       -0.10      5.37202
 C    52 -- C   332       -0.10      5.37202
 C   228 -- C   523       -0.10      5.37202
 C   227 -- C   577       -0.10      5.37202
 C   227 -- C   522       -0.10      5.37202
 C   226 -- C   576       -0.10      5.37202
 C   226 -- C   521       -0.10      5.37202
 C    51 -- C   331       -0.10      5.37202
 C   220 -- C   515       -0.10      5.37202
 C   219 -- C   514       -0.10      5.37202
 C   218 -- C   513       -0.10      5.37202
 C   217 -- C   512       -0.10      5.37202
 C   216 -- C   511       -0.10      5.37202
 C   195 -- C   540       -0.10      5.37202
 C   195 -- C   500       -0.10      5.37202
 C   194 -- C   539       -0.10      5.37202
 C   194 -- C   499       -0.10      5.37202
 C   193 -- C   538       -0.10      5.37202
 C   193 -- C   498       -0.10      5.37202
 C   192 -- C   537       -0.10      5.37202
 C   192 -- C   497       -0.10      5.37202
 C   191 -- C   536       -0.10      5.37202
 C   191 -- C   496       -0.10      5.37202
 C   180 -- C   515       -0.10      5.37202
 C   179 -- C   514       -0.10      5.37202
 C   178 -- C   513       -0.10      5.37202
 C   177 -- C   512       -0.10      5.37202
 C   176 -- C   511       -0.10      5.37202
 C   150 -- C   440       -0.10      5.37202
 C   149 -- C   439       -0.10      5.37202
 C   148 -- C   438       -0.10      5.37202
 C   147 -- C   437       -0.10      5.37202
 C   146 -- C   436       -0.10      5.37202
 C   135 -- C   460       -0.10      5.37202
 C   134 -- C   459       -0.10      5.37202
 C   133 -- C   458       -0.10      5.37202
 C   132 -- C   457       -0.10      5.37202
 C   131 -- C   456       -0.10      5.37202
 C    11 -- C   331       -0.10      5.37202
 C    95 -- C   425       -0.10      5.37202
 C    94 -- C   424       -0.10      5.37202
 C    93 -- C   423       -0.10      5.37202
 C    92 -- C   422       -0.10      5.37202
 C    91 -- C   421       -0.10      5.37202
 C    85 -- C   355       -0.10      5.37202
 C    40 -- C   365       -0.10      5.37202
 C    84 -- C   354       -0.10      5.37202
 C    83 -- C   353       -0.10      5.37202
 C    82 -- C   352       -0.10      5.37202
 C    39 -- C   364       -0.10      5.37202
 C    81 -- C   351       -0.10      5.37202
 C    38 -- C   363       -0.10      5.37202
 C    37 -- C   362       -0.10      5.37202
 C    36 -- C   361       -0.10      5.37202
 C    15 -- C   335       -0.10      5.37202
 C    65 -- C   345       -0.10      5.37202
 C    64 -- C   344       -0.10      5.37202
 C    63 -- C   343       -0.10      5.37202
 C    30 -- C   325       -0.10      5.37202
 C    62 -- C   342       -0.10      5.37202
 C    14 -- C   334       -0.10      5.37202
 C    61 -- C   341       -0.10      5.37202
 C    29 -- C   324       -0.10      5.37202
 C    28 -- C   323       -0.10      5.37202
 C    13 -- C   333       -0.10      5.37202
 C    27 -- C   322       -0.10      5.37202
 C   120 -- C   395       -0.10      5.37202
 C    55 -- C   385       -0.10      5.37202
 C   119 -- C   394       -0.10      5.37202
 C   118 -- C   393       -0.10      5.37202
 C   117 -- C   392       -0.10      5.37202
 C    54 -- C   384       -0.10      5.37202
 C    26 -- C   321       -0.10      5.37202
 C   116 -- C   391       -0.10      5.37202
 C    53 -- C   383       -0.10      5.37202
 C    12 -- C   332       -0.10      5.37202
 C    52 -- C   382       -0.10      5.37202
 C    51 -- C   381       -0.10      5.37202
 C   106 -- C   436       -0.10      5.37202
 C   106 -- C   376       -0.10      5.37202
 C    80 -- C   410       -0.10      5.37202
 C    79 -- C   409       -0.10      5.37202
 C    78 -- C   408       -0.10      5.37202
 C    77 -- C   407       -0.10      5.37202
 C    76 -- C   406       -0.10      5.37202
 C   135 -- C   410       -0.10      5.37202
 C   134 -- C   409       -0.10      5.37202
 C   133 -- C   408       -0.10      5.37202
 C   132 -- C   407       -0.10      5.37202
 C   131 -- C   406       -0.10      5.37202
 C   110 -- C   440       -0.10      5.37202
 C   110 -- C   380       -0.10      5.37202
 C   109 -- C   439       -0.10      5.37202
 C   109 -- C   379       -0.10      5.37202
 C   108 -- C   438       -0.10      5.37202
 C   108 -- C   378       -0.10      5.37202
 C   107 -- C   437       -0.10      5.37202
 C   107 -- C   377       -0.10      5.37202
 C   215 -- C   635       -0.10      5.38000
 C   214 -- C   634       -0.10      5.38000
 C   213 -- C   633       -0.10      5.38000
 C   212 -- C   632       -0.10      5.38000
 C   211 -- C   631       -0.10      5.38000
 C   190 -- C   620       -0.10      5.38000
 C   189 -- C   619       -0.10      5.38000
 C   188 -- C   618       -0.10      5.38000
 C   187 -- C   617       -0.10      5.38000
 C   186 -- C   616       -0.10      5.38000
 C   175 -- C   595       -0.10      5.38000
 C   174 -- C   594       -0.10      5.38000
 C   173 -- C   593       -0.10      5.38000
 C   172 -- C   592       -0.10      5.38000
 C   171 -- C   591       -0.10      5.38000
 C   245 -- C   640       -0.10      5.38000
 C   244 -- C   639       -0.10      5.38000
 C   243 -- C   638       -0.10      5.38000
 C   242 -- C   637       -0.10      5.38000
 C   241 -- C   636       -0.10      5.38000
==================================================


=================== Orbital energy and occupancy information ===================

      Total number of orbitals:    2560
        Occupancy sum (kernel):    1280.000000000
   Occupancy sum (eigenvalues):    1280.000000000
                 HOMO-LUMO gap:       0.066053941 Eh
                 Mid-gap level:       0.227606264 Eh

                        Orbital | Energy (Eh) | Occupancy
                            1    -0.495678734   1.0000000
                        .......   ...........   .........
                         1271     0.189978620   0.9999893
                         1272     0.190017186   0.9999892
                         1273     0.190450489   0.9999876
                         1274     0.190489008   0.9999874
                         1275     0.193121434   0.9999711
                         1276     0.193130557   0.9999711
                         1277     0.193590035   0.9999665
                         1278     0.193599052   0.9999664
                         1279     0.194114285   0.9999605
                         1280     0.194579294   0.9999543
                        ....... -- gap at 0K -- .........
                         1281     0.260633234   0.0000189
                         1282     0.260636918   0.0000189
                         1283     0.260887288   0.0000175
                         1284     0.260890578   0.0000174
                         1285     0.260934978   0.0000173
                         1286     0.260944026   0.0000172
                         1287     0.261196950   0.0000159
                         1288     0.261199675   0.0000159
                         1289     0.261208579   0.0000158
                         1290     0.261464997   0.0000146
                        .......   ...........   .........
                         2560     1.120797962   0.0000000

================================================================================

===================== Writing canonical molecular orbitals =====================
| Orbital  Energy (eV)  Norm     |
| HOMO      5.29477200  1.000000 | Writing "3.6491432_GO_manual_4x64graphite_HOMO.cube" ... done
Writing "3.6491432_GO_manual_4x64graphite_HOMO.dx" ... done
| LUMO      7.09219119  1.000000 | Writing "3.6491432_GO_manual_4x64graphite_LUMO.cube" ... done
Writing "3.6491432_GO_manual_4x64graphite_LUMO.dx" ... done
================================================================================
 
===================== Density of States (DOS) calculation ======================
Writing "3.6491432_GO_manual_4x64graphite_DOS.txt" ...  done
================================================================================
 
Writing bands to file "3.6491432_GO_manual_4x64graphite.val_bands" ... done
 
================ Projected Density of States (pDOS) calculation ================
 
Constructing AM resolved functions  ...... done
Writing NGWF plot files in formats: CUBE DX ...  done
 
Performing overlap integrals ...  done
 
Computing pDOS weights ...  done
 
All bands spilling parameter =   3.26 %
Occupancy-weighted spilling parameter =   0.95 %
 
 => Outputting data for OptaDOS <=
 
Writing pDOS weights to file "3.6491432_GO_manual_4x64graphite.val_pdos_bin" ... done
 
Writing band gradients to file "3.6491432_GO_manual_4x64graphite.val_dome_bin" ... done
 
Writing Castep output cell file to "3.6491432_GO_manual_4x64graphite-out.cell" ... done
 
 => Computing Gaussian smeared pDOS <= 
Writing "3.6491432_GO_manual_4x64graphite_PDOS.txt" ...  done
 
 => Computing Occupancy-weighted Gaussian smeared pDOS <= 
Writing "3.6491432_GO_manual_4x64graphite_occ_PDOS.txt" ...  done
  => Band centres: 
 S band centre of group 1:  -13.845980 eV
 P band centre of group 1:   -6.694975 eV
  Band centres done. <=
  => Integrated number of electrons in each AM band: 
 S num electrons of group 1:  577.171951
 P num electrons of group 1: 1958.555607
  Integrated number of electrons done. <=
================================================================================

------------------------------ TIMING INFORMATION ------------------------------
AVERAGE TIME:    3316.212s on     40 node(s)                                    
TOTAL TIME:      3316.214s on     40 node(s)                                    
================= AVERAGE TIMINGS FROM ALL NODES (CUMULATIVE) ==================
|| TAG                                    #calls    cpu time   %total  Gflops ||
|| work_imbalance                       :     1        0.00s   0.000%  ------ ||
|| paw_tcore_hartree_on_grid            :     1        0.01s   0.000%  ------ ||
|| paw_tcore_density                    :     1        0.01s   0.000%  ------ ||
|| paw_sphere_density_on_grid           :     1        0.01s   0.000%  ------ ||
|| sparse_set_to_garbage                :   147        0.03s   0.001%  ------ ||
|| paw_dij_hartree                      :   304        0.04s   0.001%  ------ ||
|| pseudo_make_structure_factor         :     1        0.07s   0.002%  ------ ||
|| basis_extract_function_from_box      :  1664        0.07s   0.002%  ------ ||
|| paw_species_calc_proj_prec_mat       :     1        0.12s   0.004%  ------ ||
|| paw_dataset_init                     :     1        0.15s   0.005%  ------ ||
|| density_init_guess_real              :     1        0.20s   0.006%  ------ ||
|| ngwfs_initialise_from_radial         :     2        0.66s   0.020%  ------ ||
|| restart_kernel_write                 :    14        0.75s   0.022%  ------ ||
|| sparse_init                          :     1        0.96s   0.029%  ------ ||
|| dense_normal_eigensolve              :     1        0.99s   0.030%  ------ ||
|| hartree_on_grid                      :   228        1.30s   0.039%  ------ ||
|| projectors_init_fftbox_recip         :   131        2.61s   0.079%  ------ ||
|| ewald_calculate_energy               :     1        3.13s   0.094%  ------ ||
|| fourier_apply_box_pair               :  2464        4.11s   0.124% 556.415 ||
|| basis_copy_function_to_box           : 21696        4.55s   0.137%  ------ ||
|| augmentation_screen_dij              :   233        5.26s   0.159%  ------ ||
|| sw_init                              :     1        6.74s   0.203%  ------ ||
|| sparse_embed_hotelling_invert_embed  :    25        7.15s   0.215%  ------ ||
|| ngwf_gradient_coeffs                 :    13        9.00s   0.272%  ------ ||
|| fourier_apply_cell_backward          :  7039       14.92s   0.450%  60.603 ||
|| sparse_trace                         :  2752       15.00s   0.452%  ------ ||
|| fourier_apply_cell_forward           :  6584       16.04s   0.484%  52.739 ||
|| cell_grid_extract_box_real           :  9180       18.25s   0.550%  ------ ||
|| paw_dij_xc                           :   304       20.09s   0.606%  ------ ||
|| cell_grid_deposit_box_real           : 29360       23.45s   0.707%  ------ ||
|| aug_nonlocal_mat                     :   291       29.55s   0.891%  ------ ||
|| augmentation_density_on_grid         :   228       39.21s   1.182%  ------ ||
|| hamiltonian_energy_components        :     3       46.33s   1.397%  ------ ||
|| density_fftbox_deposit_to_cell       : 14592       49.49s   1.492%  ------ ||
|| function_ops_brappd_ketppd           :    52       51.91s   1.565%  ------ ||
|| eigenstates_pdos                     :     1       53.91s   1.626%  ------ ||
|| projectors_func_ovlp_box             :    26       57.65s   1.739%  ------ ||
|| eigenstates_calculate                :     1       58.29s   1.758%  ------ ||
|| nlxc_vdw_energy                      :   454       64.26s   1.938%  ------ ||
|| xc_energy_potential                  :   227       69.87s   2.107%  ------ ||
|| integrals_kinetic                    :    25       80.15s   2.417%  ------ ||
|| dense_eigensolve                     :   199      102.95s   3.105%  ------ ||
|| properties_calculate                 :     1      105.95s   3.195%  ------ ||
|| sparse_product                       :  2792      109.13s   3.291%  ------ ||
|| potential_apply_to_ngwf_batch        :   288      115.38s   3.479%  ------ ||
|| restart_ngwfs_tightbox_output        :    12      131.22s   3.957%  ------ ||
|| basis_dot_function_with_box          : 6.707M     179.97s   5.427%  ------ ||
|| fourier_apply_box                    : 68352      213.03s   6.424% 975.215 ||
|| edft_diag_ngwf_ham                   :   198      225.06s   6.787%  ------ ||
|| projectors_gradient_batch            :    52      230.99s   6.965%  ------ ||
|| integrals_locpot_mat_els_batch       :   288      236.75s   7.139%  ------ ||
|| density_fftbox_interpolate_multiply  : 14592      280.47s   8.458%  ------ ||
|| projectors_grad_precond_batch        :    52      324.31s   9.780%  ------ ||
|| integrals_locpot_dbl_grid            :    72      353.35s  10.655%  ------ ||
|| density_batch_interp_deposit         :   912      367.93s  11.095%  ------ ||
|| edft_apply_smearing_operator         :   198      435.70s  13.138%  ------ ||
|| basis_add_function_to_box            : 18.78M     490.17s  14.781%  ------ ||
|| ngwf_gradient_build_batch            :    52      595.38s  17.954%  ------ ||
|| density_batch_row_sums               :   912      671.54s  20.250%  ------ ||
|| ngwf_gradient_batch                  :    52      787.83s  23.757%  ------ ||
|| ngwf_gradient_lnv                    :    13      814.27s  24.554%  ------ ||
|| density_on_dbl_grid                  :   228     1051.89s  31.720%  ------ ||
|| hamiltonian_lhxc_calculate           :   223     1139.69s  34.367%  ------ ||
|| edft_calculate                       :    13     1911.41s  57.638%  ------ ||
|| ngwf_cg_optimise                     :     1     3184.89s  96.040%  ------ ||
|| total_time                           :     1     3316.21s 100.000%  ------ ||
================================================================================
Overhead of generating timer report: 
- 0 ms averaging over threads,
- 5 ms ensuring consistency across MPI ranks,
- 0 ms printing in order.

Job completed: 29-02-2020 12:21 (-0000)

