 +---------------------------------------------------------------+
 |                                                               |
 |        ####### #     # ####### ####### ####### ######         |
 |        #     # ##    # #          #    #       #     #        |
 |        #     # # #   # #          #    #       #     #        |
 |        #     # #  #  # #####      #    #####   ######         |
 |        #     # #   # # #          #    #       #              |
 |        #     # #    ## #          #    #       #              |
 |        ####### #     # #######    #    ####### #              |
 |                                                               |
 |        Linear-Scaling Ab Initio Total Energy Program          |
 |                                                               |
 |          Release for academic collaborators of ODG            |
 |                                             Version 5.3.2.12  |
 |                                                               |
 +---------------------------------------------------------------+
 |                                                               |
 |  Authors:                                                     |
 |  Jacek Dziedzic, Peter D. Haynes, Nicholas D. M. Hine,        |
 |  Arash. A. Mostofi, Mike C. Payne and Chris-Kriton Skylaris   |
 |                                                               |
 |  Contributors:                                                |
 |  J. Aarons, L. Andrinopoulos, P. W. Avraam, R. A. Bell,       |
 |  A. Bhandari, G. A. Bramley, R. J. Charlton, S. J. Clark,     |
 |  R. J. Clements, G. C. Constantinescu, F. Corsetti,           |
 |  N. Corsini, O. Dieguez, S. M. M. Dubois, K. K. B. Duff,      |
 |  J. M. Escartin, A. Greco, H. Helal, Q. O. Hill, L. P. Lee,   |
 |  J.-H. Li, E. B. Linscott, G. Moynihan, D. D. O`Regan,        |
 |  O. K. Okan, M. J. S. Phipps, C. J. Pickard,                  |
 |  J. C. A. Prentice, M. I. J. Probert, L. E. Ratcliff,         |
 |  M. Robinson, A. Ruiz Serrano, J. S. Spencer, E. W. Tait,     |
 |  G. Teobaldi, D. Turban, V. Vitale, K. A. Wilkinson,          |
 |  C. Weber, J. C. Womack, N. Yeung and T. J. Zuehlsdorff       |
 |                                                               |
 |                                   Copyright (c) 2004-2020     |
 |                                                               |
 |  Please cite:                                                 |
 |  "Introducing ONETEP: Linear-scaling density functional       |
 |   simulations on parallel computers".                         |
 |   C.-K. Skylaris, P. D. Haynes, A. A. Mostofi, M. C. Payne.   |
 |   J. Chem. Phys. 122 084119 (2005).                           |
 |                                                               |
 |          in all publications arising from your use of ONETEP. |
 |                                                               |
 +---------------------------------------------------------------+
 |                                                               |
 |   ONETEP is based on developments described in the following  |
 |   publications:                                               |
 |                                                               |
 |  "Nonorthogonal generalized Wannier function pseudopotential  |
 |   plane-wave method".                                         |
 |   C.-K. Skylaris, A. A. Mostofi, P. D. Haynes, O. Dieguez,    |
 |   M. C. Payne.                                                |
 |   Phys. Rev. B 66 035119 (2002).                              |
 |                                                               |
 |  "Preconditioned iterative minimization for linear-scaling    |
 |   electronic structure calculations".                         |
 |   A. A. Mostofi, P. D. Haynes, C.-K. Skylaris, M. C. Payne.   |
 |   J. Chem. Phys. 119(17), pp.8842-8848 (2003).                |
 |                                                               |
 |  "Total-energy calculations on a real space grid with         |
 |   localized functions and a plane-wave basis".                |
 |   A. A. Mostofi, C.-K. Skylaris, P. D. Haynes, M. C. Payne.   |
 |   Comput. Phys. Commun. 147, pp.788-802 (2002).               |
 |                                                               |
 |  "Accurate kinetic energy evaluation in electronic structure  |
 |   calculations with localized functions on real space grids"  |
 |   C.-K. Skylaris, A. A. Mostofi, P. D. Haynes, C. J. Pickard, |
 |   M. C. Payne.                                                |
 |   Comput. Phys. Commun. 140, pp.315-322 (2001).               |
 |                                                               |
 |  "Accurate ionic forces and geometry optimization in linear-  |
 |   scaling density-functional theory with local orbitals"      |
 |   N. D. M. Hine, M. Robinson, P. D. Haynes, C.-K. Skylaris,   |
 |   M. C. Payne, and A. A. Mostofi.                             |
 |   Phys. Rev. B 83 195102 (2011).                              |
 |                                                               |
 +---------------------------------------------------------------+

Job started: 29-02-2020 10:41 (-0000)
 
Reading parameters from file "3.8637928_GO_manual_4x64graphite.dat" ...

WARNING: "cutoff_energy" not specified, but "psinc_spacing" specified.
         Using the latter to set the KE cutoff energy to  732.32021eV,
         thus *overriding* the default.

... done

If your calculation crashes here, before "Checking processes and threads..."
is displayed, then your stack size is insufficient.
If so, use "ulimit -s unlimited" at runtime.
You can disable this check with "check_stack_size F".

Checking processes and threads...
   Determining the default number of threads...
      No default threads set at compilation time: defaulting to 1.
      OpenMP library call suggests 4 threads.
      Hybrid MPI-OpenMP compilation detected.
      Number of MPI processes > 1.
      OMP_NUM_THREADS environment variable present and
      its value matches the one obtained from the OpenMP library call.
      Using this value as default.
      Default threads: 4
      Default applies to threads_max and threads_num_fftboxes.
      Settings in the input file override this default.
   ... done

   Running with 40 MPI processes.
   There are 10 MPI processes running on the same node as the root process.
   Each MPI process is using: 
               1 threads for simulation cell FFTs.
               1 threads for parallel FFT box operations.
               4 threads for loops over batched FFT box operations.
               4 threads in other parallel regions.
... done

Basic input checks...
Resetting ngwf_cg_rotate to TRUE for EDFT calculations
... done

Reading geometry and species blocks from file "3.8637928_GO_manual_4x64graphite.dat" ...
    
  PSINC grid spacing along a1 set to   0.511215680000a0 from input file.
  PSINC grid spacing along a2 set to   0.531284090000a0 from input file.
  PSINC grid spacing along a3 set to   0.507050360000a0 from input file.
  Number of PPD points along a3 set to 1.  This is 
  the default value, it may have been provided also in the input file.
... done
 Writing xyz coordinates to file "3.8637928_GO_manual_4x64graphite.xyz" ... done


--------------------------------------------------------------------------------
---------------------------------- INPUT FILE ----------------------------------
--------------------------------------------------------------------------------

task : singlepoint                                                              
do_properties : true                                                            
dx_format T                                                                     
edft T                                                                          
output_detail VERBOSE                                                           
write_xyz T                                                                     
xc_functional VDWDF                                                             
PSINC_SPACING 0.51121568 0.53128409 0.50705036                                  
paw T                                                                           
pdos_max_l = 2                                                                  
dos_smear  0.1 eV                                                               
popn_calculate T                                                                
PDOS_PSEUDOATOMIC T                                                             
PDOS_REDUCE_SWS F                                                               
PDOS_CONSTRUCT_BASIS F                                                          
PDOS_LOWDIN T                                                                   
PDOS_ORTH_ATOM_BLOCKS F                                                         
PDOS_LCAO_OPTIMIZE F                                                            
pdos_optados_output T                                                           
homo_plot 0                                                                     
lumo_plot 0                                                                     
homo_dens_plot -1                                                               
lumo_dens_plot -1                                                               
%BLOCK SPECIES                                                                  
C C 6 4 9.0                                                                     
%ENDBLOCK SPECIES                                                               
%BLOCK SPECIES_POT                                                              
C "~/pp/paw/c_pbe_abinit.paw"                                                   
%ENDBLOCK SPECIES_POT                                                           
%BLOCK SPECIES_ATOMIC_SET                                                       
C "SOLVE conf=2s2 2p2"                                                          
%ENDBLOCK SPECIES_ATOMIC_SET                                                    
%BLOCK LATTICE_CART                                                             
32.21  0.00  0.00                                                               
0.00 18.59  0.00                                                                
0.00  0.00 73.02                                                                
%ENDBLOCK LATTICE_CART                                                          
%BLOCK POSITIONS_ABS                                                            
C  0.00  0.00  3.65                                                             
C  0.00  0.00 18.25                                                             
C  0.00  0.00 32.86                                                             
C  0.00  0.00 47.46                                                             
C  0.00  0.00 62.06                                                             
C  0.00  4.65  3.65                                                             
C  0.00  4.65 18.25                                                             
C  0.00  4.65 32.86                                                             
C  0.00  4.65 47.46                                                             
C  0.00  4.65 62.06                                                             
C  4.03  2.32  3.65                                                             
C  4.03  2.32 18.25                                                             
C  4.03  2.32 32.86                                                             
C  4.03  2.32 47.46                                                             
C  4.03  2.32 62.06                                                             
C  8.05  0.00  3.65                                                             
C  8.05  0.00 18.25                                                             
C  8.05  0.00 32.86                                                             
C  8.05  0.00 47.46                                                             
C  8.05  0.00 62.06                                                             
C  0.00  9.30  3.65                                                             
C  0.00  9.30 18.25                                                             
C  0.00  9.30 32.86                                                             
C  0.00  9.30 47.46                                                             
C  0.00  9.30 62.06                                                             
C  4.03  6.97  3.65                                                             
C  4.03  6.97 18.25                                                             
C  4.03  6.97 32.86                                                             
C  4.03  6.97 47.46                                                             
C  4.03  6.97 62.06                                                             
C  8.05  4.65  3.65                                                             
C  8.05  4.65 18.25                                                             
C  8.05  4.65 32.86                                                             
C  8.05  4.65 47.46                                                             
C  8.05  4.65 62.06                                                             
C 12.08  2.32  3.65                                                             
C 12.08  2.32 18.25                                                             
C 12.08  2.32 32.86                                                             
C 12.08  2.32 47.46                                                             
C 12.08  2.32 62.06                                                             
C 16.10  0.00  3.65                                                             
C 16.10  0.00 18.25                                                             
C 16.10  0.00 32.86                                                             
C 16.10  0.00 47.46                                                             
C 16.10  0.00 62.06                                                             
C  0.00 13.95  3.65                                                             
C  0.00 13.95 18.25                                                             
C  0.00 13.95 32.86                                                             
C  0.00 13.95 47.46                                                             
C  0.00 13.95 62.06                                                             
C  4.03 11.62  3.65                                                             
C  4.03 11.62 18.25                                                             
C  4.03 11.62 32.86                                                             
C  4.03 11.62 47.46                                                             
C  4.03 11.62 62.06                                                             
C  8.05  9.30  3.65                                                             
C  8.05  9.30 18.25                                                             
C  8.05  9.30 32.86                                                             
C  8.05  9.30 47.46                                                             
C  8.05  9.30 62.06                                                             
C 12.08  6.97  3.65                                                             
C 12.08  6.97 18.25                                                             
C 12.08  6.97 32.86                                                             
C 12.08  6.97 47.46                                                             
C 12.08  6.97 62.06                                                             
C 16.10  4.65  3.65                                                             
C 16.10  4.65 18.25                                                             
C 16.10  4.65 32.86                                                             
C 16.10  4.65 47.46                                                             
C 16.10  4.65 62.06                                                             
C 20.13  2.32  3.65                                                             
C 20.13  2.32 18.25                                                             
C 20.13  2.32 32.86                                                             
C 20.13  2.32 47.46                                                             
C 20.13  2.32 62.06                                                             
C 24.16  0.00  3.65                                                             
C 24.16  0.00 18.25                                                             
C 24.16  0.00 32.86                                                             
C 24.16  0.00 47.46                                                             
C 24.16  0.00 62.06                                                             
C  4.03 16.27  3.65                                                             
C  4.03 16.27 18.25                                                             
C  4.03 16.27 32.86                                                             
C  4.03 16.27 47.46                                                             
C  4.03 16.27 62.06                                                             
C  8.05 13.95  3.65                                                             
C  8.05 13.95 18.25                                                             
C  8.05 13.95 32.86                                                             
C  8.05 13.95 47.46                                                             
C  8.05 13.95 62.06                                                             
C 12.08 11.62  3.65                                                             
C 12.08 11.62 18.25                                                             
C 12.08 11.62 32.86                                                             
C 12.08 11.62 47.46                                                             
C 12.08 11.62 62.06                                                             
C 16.10  9.30  3.65                                                             
C 16.10  9.30 18.25                                                             
C 16.10  9.30 32.86                                                             
C 16.10  9.30 47.46                                                             
C 16.10  9.30 62.06                                                             
C 20.13  6.97  3.65                                                             
C 20.13  6.97 18.25                                                             
C 20.13  6.97 32.86                                                             
C 20.13  6.97 47.46                                                             
C 20.13  6.97 62.06                                                             
C 24.16  4.65  3.65                                                             
C 24.16  4.65 18.25                                                             
C 24.16  4.65 32.86                                                             
C 24.16  4.65 47.46                                                             
C 24.16  4.65 62.06                                                             
C 28.18  2.32  3.65                                                             
C 28.18  2.32 18.25                                                             
C 28.18  2.32 32.86                                                             
C 28.18  2.32 47.46                                                             
C 28.18  2.32 62.06                                                             
C 12.08 16.27  3.65                                                             
C 12.08 16.27 18.25                                                             
C 12.08 16.27 32.86                                                             
C 12.08 16.27 47.46                                                             
C 12.08 16.27 62.06                                                             
C 16.10 13.95  3.65                                                             
C 16.10 13.95 18.25                                                             
C 16.10 13.95 32.86                                                             
C 16.10 13.95 47.46                                                             
C 16.10 13.95 62.06                                                             
C 20.13 11.62  3.65                                                             
C 20.13 11.62 18.25                                                             
C 20.13 11.62 32.86                                                             
C 20.13 11.62 47.46                                                             
C 20.13 11.62 62.06                                                             
C 24.16  9.30  3.65                                                             
C 24.16  9.30 18.25                                                             
C 24.16  9.30 32.86                                                             
C 24.16  9.30 47.46                                                             
C 24.16  9.30 62.06                                                             
C 28.18  6.97  3.65                                                             
C 28.18  6.97 18.25                                                             
C 28.18  6.97 32.86                                                             
C 28.18  6.97 47.46                                                             
C 28.18  6.97 62.06                                                             
C 20.13 16.27  3.65                                                             
C 20.13 16.27 18.25                                                             
C 20.13 16.27 32.86                                                             
C 20.13 16.27 47.46                                                             
C 20.13 16.27 62.06                                                             
C 24.16 13.95  3.65                                                             
C 24.16 13.95 18.25                                                             
C 24.16 13.95 32.86                                                             
C 24.16 13.95 47.46                                                             
C 24.16 13.95 62.06                                                             
C 28.18 11.62  3.65                                                             
C 28.18 11.62 18.25                                                             
C 28.18 11.62 32.86                                                             
C 28.18 11.62 47.46                                                             
C 28.18 11.62 62.06                                                             
C 28.18 16.27  3.65                                                             
C 28.18 16.27 18.25                                                             
C 28.18 16.27 32.86                                                             
C 28.18 16.27 47.46                                                             
C 28.18 16.27 62.06                                                             
C  0.00  0.00 10.95                                                             
C  0.00  0.00 25.56                                                             
C  0.00  0.00 40.16                                                             
C  0.00  0.00 54.76                                                             
C  0.00  0.00 69.36                                                             
C  0.00  4.65 10.95                                                             
C  0.00  4.65 25.56                                                             
C  0.00  4.65 40.16                                                             
C  0.00  4.65 54.76                                                             
C  0.00  4.65 69.36                                                             
C  4.03  2.32 10.95                                                             
C  4.03  2.32 25.56                                                             
C  4.03  2.32 40.16                                                             
C  4.03  2.32 54.76                                                             
C  4.03  2.32 69.36                                                             
C  8.05  0.00 10.95                                                             
C  8.05  0.00 25.56                                                             
C  8.05  0.00 40.16                                                             
C  8.05  0.00 54.76                                                             
C  8.05  0.00 69.36                                                             
C  0.00  9.30 10.95                                                             
C  0.00  9.30 25.56                                                             
C  0.00  9.30 40.16                                                             
C  0.00  9.30 54.76                                                             
C  0.00  9.30 69.36                                                             
C  4.03  6.97 10.95                                                             
C  4.03  6.97 25.56                                                             
C  4.03  6.97 40.16                                                             
C  4.03  6.97 54.76                                                             
C  4.03  6.97 69.36                                                             
C  8.05  4.65 10.95                                                             
C  8.05  4.65 25.56                                                             
C  8.05  4.65 40.16                                                             
C  8.05  4.65 54.76                                                             
C  8.05  4.65 69.36                                                             
C 12.08  2.32 10.95                                                             
C 12.08  2.32 25.56                                                             
C 12.08  2.32 40.16                                                             
C 12.08  2.32 54.76                                                             
C 12.08  2.32 69.36                                                             
C 16.10  0.00 10.95                                                             
C 16.10  0.00 25.56                                                             
C 16.10  0.00 40.16                                                             
C 16.10  0.00 54.76                                                             
C 16.10  0.00 69.36                                                             
C  0.00 13.95 10.95                                                             
C  0.00 13.95 25.56                                                             
C  0.00 13.95 40.16                                                             
C  0.00 13.95 54.76                                                             
C  0.00 13.95 69.36                                                             
C  4.03 11.62 10.95                                                             
C  4.03 11.62 25.56                                                             
C  4.03 11.62 40.16                                                             
C  4.03 11.62 54.76                                                             
C  4.03 11.62 69.36                                                             
C  8.05  9.30 10.95                                                             
C  8.05  9.30 25.56                                                             
C  8.05  9.30 40.16                                                             
C  8.05  9.30 54.76                                                             
C  8.05  9.30 69.36                                                             
C 12.08  6.97 10.95                                                             
C 12.08  6.97 25.56                                                             
C 12.08  6.97 40.16                                                             
C 12.08  6.97 54.76                                                             
C 12.08  6.97 69.36                                                             
C 16.10  4.65 10.95                                                             
C 16.10  4.65 25.56                                                             
C 16.10  4.65 40.16                                                             
C 16.10  4.65 54.76                                                             
C 16.10  4.65 69.36                                                             
C 20.13  2.32 10.95                                                             
C 20.13  2.32 25.56                                                             
C 20.13  2.32 40.16                                                             
C 20.13  2.32 54.76                                                             
C 20.13  2.32 69.36                                                             
C 24.16  0.00 10.95                                                             
C 24.16  0.00 25.56                                                             
C 24.16  0.00 40.16                                                             
C 24.16  0.00 54.76                                                             
C 24.16  0.00 69.36                                                             
C  4.03 16.27 10.95                                                             
C  4.03 16.27 25.56                                                             
C  4.03 16.27 40.16                                                             
C  4.03 16.27 54.76                                                             
C  4.03 16.27 69.36                                                             
C  8.05 13.95 10.95                                                             
C  8.05 13.95 25.56                                                             
C  8.05 13.95 40.16                                                             
C  8.05 13.95 54.76                                                             
C  8.05 13.95 69.36                                                             
C 12.08 11.62 10.95                                                             
C 12.08 11.62 25.56                                                             
C 12.08 11.62 40.16                                                             
C 12.08 11.62 54.76                                                             
C 12.08 11.62 69.36                                                             
C 16.10  9.30 10.95                                                             
C 16.10  9.30 25.56                                                             
C 16.10  9.30 40.16                                                             
C 16.10  9.30 54.76                                                             
C 16.10  9.30 69.36                                                             
C 20.13  6.97 10.95                                                             
C 20.13  6.97 25.56                                                             
C 20.13  6.97 40.16                                                             
C 20.13  6.97 54.76                                                             
C 20.13  6.97 69.36                                                             
C 24.16  4.65 10.95                                                             
C 24.16  4.65 25.56                                                             
C 24.16  4.65 40.16                                                             
C 24.16  4.65 54.76                                                             
C 24.16  4.65 69.36                                                             
C 28.18  2.32 10.95                                                             
C 28.18  2.32 25.56                                                             
C 28.18  2.32 40.16                                                             
C 28.18  2.32 54.76                                                             
C 28.18  2.32 69.36                                                             
C 12.08 16.27 10.95                                                             
C 12.08 16.27 25.56                                                             
C 12.08 16.27 40.16                                                             
C 12.08 16.27 54.76                                                             
C 12.08 16.27 69.36                                                             
C 16.10 13.95 10.95                                                             
C 16.10 13.95 25.56                                                             
C 16.10 13.95 40.16                                                             
C 16.10 13.95 54.76                                                             
C 16.10 13.95 69.36                                                             
C 20.13 11.62 10.95                                                             
C 20.13 11.62 25.56                                                             
C 20.13 11.62 40.16                                                             
C 20.13 11.62 54.76                                                             
C 20.13 11.62 69.36                                                             
C 24.16  9.30 10.95                                                             
C 24.16  9.30 25.56                                                             
C 24.16  9.30 40.16                                                             
C 24.16  9.30 54.76                                                             
C 24.16  9.30 69.36                                                             
C 28.18  6.97 10.95                                                             
C 28.18  6.97 25.56                                                             
C 28.18  6.97 40.16                                                             
C 28.18  6.97 54.76                                                             
C 28.18  6.97 69.36                                                             
C 20.13 16.27 10.95                                                             
C 20.13 16.27 25.56                                                             
C 20.13 16.27 40.16                                                             
C 20.13 16.27 54.76                                                             
C 20.13 16.27 69.36                                                             
C 24.16 13.95 10.95                                                             
C 24.16 13.95 25.56                                                             
C 24.16 13.95 40.16                                                             
C 24.16 13.95 54.76                                                             
C 24.16 13.95 69.36                                                             
C 28.18 11.62 10.95                                                             
C 28.18 11.62 25.56                                                             
C 28.18 11.62 40.16                                                             
C 28.18 11.62 54.76                                                             
C 28.18 11.62 69.36                                                             
C 28.18 16.27 10.95                                                             
C 28.18 16.27 25.56                                                             
C 28.18 16.27 40.16                                                             
C 28.18 16.27 54.76                                                             
C 28.18 16.27 69.36                                                             
C  1.34  2.32  3.65                                                             
C  1.34  2.32 18.25                                                             
C  1.34  2.32 32.86                                                             
C  1.34  2.32 47.46                                                             
C  1.34  2.32 62.06                                                             
C  5.37  0.00  3.65                                                             
C  5.37  0.00 18.25                                                             
C  5.37  0.00 32.86                                                             
C  5.37  0.00 47.46                                                             
C  5.37  0.00 62.06                                                             
C  1.34  6.97  3.65                                                             
C  1.34  6.97 18.25                                                             
C  1.34  6.97 32.86                                                             
C  1.34  6.97 47.46                                                             
C  1.34  6.97 62.06                                                             
C  5.37  4.65  3.65                                                             
C  5.37  4.65 18.25                                                             
C  5.37  4.65 32.86                                                             
C  5.37  4.65 47.46                                                             
C  5.37  4.65 62.06                                                             
C  9.39  2.32  3.65                                                             
C  9.39  2.32 18.25                                                             
C  9.39  2.32 32.86                                                             
C  9.39  2.32 47.46                                                             
C  9.39  2.32 62.06                                                             
C 13.42  0.00  3.65                                                             
C 13.42  0.00 18.25                                                             
C 13.42  0.00 32.86                                                             
C 13.42  0.00 47.46                                                             
C 13.42  0.00 62.06                                                             
C  1.34 11.62  3.65                                                             
C  1.34 11.62 18.25                                                             
C  1.34 11.62 32.86                                                             
C  1.34 11.62 47.46                                                             
C  1.34 11.62 62.06                                                             
C  5.37  9.30  3.65                                                             
C  5.37  9.30 18.25                                                             
C  5.37  9.30 32.86                                                             
C  5.37  9.30 47.46                                                             
C  5.37  9.30 62.06                                                             
C  9.39  6.97  3.65                                                             
C  9.39  6.97 18.25                                                             
C  9.39  6.97 32.86                                                             
C  9.39  6.97 47.46                                                             
C  9.39  6.97 62.06                                                             
C 13.42  4.65  3.65                                                             
C 13.42  4.65 18.25                                                             
C 13.42  4.65 32.86                                                             
C 13.42  4.65 47.46                                                             
C 13.42  4.65 62.06                                                             
C 17.45  2.32  3.65                                                             
C 17.45  2.32 18.25                                                             
C 17.45  2.32 32.86                                                             
C 17.45  2.32 47.46                                                             
C 17.45  2.32 62.06                                                             
C 21.47  0.00  3.65                                                             
C 21.47  0.00 18.25                                                             
C 21.47  0.00 32.86                                                             
C 21.47  0.00 47.46                                                             
C 21.47  0.00 62.06                                                             
C  1.34 16.27  3.65                                                             
C  1.34 16.27 18.25                                                             
C  1.34 16.27 32.86                                                             
C  1.34 16.27 47.46                                                             
C  1.34 16.27 62.06                                                             
C  5.37 13.95  3.65                                                             
C  5.37 13.95 18.25                                                             
C  5.37 13.95 32.86                                                             
C  5.37 13.95 47.46                                                             
C  5.37 13.95 62.06                                                             
C  9.39 11.62  3.65                                                             
C  9.39 11.62 18.25                                                             
C  9.39 11.62 32.86                                                             
C  9.39 11.62 47.46                                                             
C  9.39 11.62 62.06                                                             
C 13.42  9.30  3.65                                                             
C 13.42  9.30 18.25                                                             
C 13.42  9.30 32.86                                                             
C 13.42  9.30 47.46                                                             
C 13.42  9.30 62.06                                                             
C 17.45  6.97  3.65                                                             
C 17.45  6.97 18.25                                                             
C 17.45  6.97 32.86                                                             
C 17.45  6.97 47.46                                                             
C 17.45  6.97 62.06                                                             
C 21.47  4.65  3.65                                                             
C 21.47  4.65 18.25                                                             
C 21.47  4.65 32.86                                                             
C 21.47  4.65 47.46                                                             
C 21.47  4.65 62.06                                                             
C 25.50  2.32  3.65                                                             
C 25.50  2.32 18.25                                                             
C 25.50  2.32 32.86                                                             
C 25.50  2.32 47.46                                                             
C 25.50  2.32 62.06                                                             
C 29.52  0.00  3.65                                                             
C 29.52  0.00 18.25                                                             
C 29.52  0.00 32.86                                                             
C 29.52  0.00 47.46                                                             
C 29.52  0.00 62.06                                                             
C  9.39 16.27  3.65                                                             
C  9.39 16.27 18.25                                                             
C  9.39 16.27 32.86                                                             
C  9.39 16.27 47.46                                                             
C  9.39 16.27 62.06                                                             
C 13.42 13.95  3.65                                                             
C 13.42 13.95 18.25                                                             
C 13.42 13.95 32.86                                                             
C 13.42 13.95 47.46                                                             
C 13.42 13.95 62.06                                                             
C 17.45 11.62  3.65                                                             
C 17.45 11.62 18.25                                                             
C 17.45 11.62 32.86                                                             
C 17.45 11.62 47.46                                                             
C 17.45 11.62 62.06                                                             
C 21.47  9.30  3.65                                                             
C 21.47  9.30 18.25                                                             
C 21.47  9.30 32.86                                                             
C 21.47  9.30 47.46                                                             
C 21.47  9.30 62.06                                                             
C 25.50  6.97  3.65                                                             
C 25.50  6.97 18.25                                                             
C 25.50  6.97 32.86                                                             
C 25.50  6.97 47.46                                                             
C 25.50  6.97 62.06                                                             
C 29.52  4.65  3.65                                                             
C 29.52  4.65 18.25                                                             
C 29.52  4.65 32.86                                                             
C 29.52  4.65 47.46                                                             
C 29.52  4.65 62.06                                                             
C 17.45 16.27  3.65                                                             
C 17.45 16.27 18.25                                                             
C 17.45 16.27 32.86                                                             
C 17.45 16.27 47.46                                                             
C 17.45 16.27 62.06                                                             
C 21.47 13.95  3.65                                                             
C 21.47 13.95 18.25                                                             
C 21.47 13.95 32.86                                                             
C 21.47 13.95 47.46                                                             
C 21.47 13.95 62.06                                                             
C 25.50 11.62  3.65                                                             
C 25.50 11.62 18.25                                                             
C 25.50 11.62 32.86                                                             
C 25.50 11.62 47.46                                                             
C 25.50 11.62 62.06                                                             
C 29.52  9.30  3.65                                                             
C 29.52  9.30 18.25                                                             
C 29.52  9.30 32.86                                                             
C 29.52  9.30 47.46                                                             
C 29.52  9.30 62.06                                                             
C 25.50 16.27  3.65                                                             
C 25.50 16.27 18.25                                                             
C 25.50 16.27 32.86                                                             
C 25.50 16.27 47.46                                                             
C 25.50 16.27 62.06                                                             
C 29.52 13.95  3.65                                                             
C 29.52 13.95 18.25                                                             
C 29.52 13.95 32.86                                                             
C 29.52 13.95 47.46                                                             
C 29.52 13.95 62.06                                                             
C  2.68  0.00 10.95                                                             
C  2.68  0.00 25.56                                                             
C  2.68  0.00 40.16                                                             
C  2.68  0.00 54.76                                                             
C  2.68  0.00 69.36                                                             
C  2.68  4.65 10.95                                                             
C  2.68  4.65 25.56                                                             
C  2.68  4.65 40.16                                                             
C  2.68  4.65 54.76                                                             
C  2.68  4.65 69.36                                                             
C  6.71  2.32 10.95                                                             
C  6.71  2.32 25.56                                                             
C  6.71  2.32 40.16                                                             
C  6.71  2.32 54.76                                                             
C  6.71  2.32 69.36                                                             
C 10.74  0.00 10.95                                                             
C 10.74  0.00 25.56                                                             
C 10.74  0.00 40.16                                                             
C 10.74  0.00 54.76                                                             
C 10.74  0.00 69.36                                                             
C  2.68  9.30 10.95                                                             
C  2.68  9.30 25.56                                                             
C  2.68  9.30 40.16                                                             
C  2.68  9.30 54.76                                                             
C  2.68  9.30 69.36                                                             
C  6.71  6.97 10.95                                                             
C  6.71  6.97 25.56                                                             
C  6.71  6.97 40.16                                                             
C  6.71  6.97 54.76                                                             
C  6.71  6.97 69.36                                                             
C 10.74  4.65 10.95                                                             
C 10.74  4.65 25.56                                                             
C 10.74  4.65 40.16                                                             
C 10.74  4.65 54.76                                                             
C 10.74  4.65 69.36                                                             
C 14.76  2.32 10.95                                                             
C 14.76  2.32 25.56                                                             
C 14.76  2.32 40.16                                                             
C 14.76  2.32 54.76                                                             
C 14.76  2.32 69.36                                                             
C 18.79  0.00 10.95                                                             
C 18.79  0.00 25.56                                                             
C 18.79  0.00 40.16                                                             
C 18.79  0.00 54.76                                                             
C 18.79  0.00 69.36                                                             
C  2.68 13.95 10.95                                                             
C  2.68 13.95 25.56                                                             
C  2.68 13.95 40.16                                                             
C  2.68 13.95 54.76                                                             
C  2.68 13.95 69.36                                                             
C  6.71 11.62 10.95                                                             
C  6.71 11.62 25.56                                                             
C  6.71 11.62 40.16                                                             
C  6.71 11.62 54.76                                                             
C  6.71 11.62 69.36                                                             
C 10.74  9.30 10.95                                                             
C 10.74  9.30 25.56                                                             
C 10.74  9.30 40.16                                                             
C 10.74  9.30 54.76                                                             
C 10.74  9.30 69.36                                                             
C 14.76  6.97 10.95                                                             
C 14.76  6.97 25.56                                                             
C 14.76  6.97 40.16                                                             
C 14.76  6.97 54.76                                                             
C 14.76  6.97 69.36                                                             
C 18.79  4.65 10.95                                                             
C 18.79  4.65 25.56                                                             
C 18.79  4.65 40.16                                                             
C 18.79  4.65 54.76                                                             
C 18.79  4.65 69.36                                                             
C 22.81  2.32 10.95                                                             
C 22.81  2.32 25.56                                                             
C 22.81  2.32 40.16                                                             
C 22.81  2.32 54.76                                                             
C 22.81  2.32 69.36                                                             
C 26.84  0.00 10.95                                                             
C 26.84  0.00 25.56                                                             
C 26.84  0.00 40.16                                                             
C 26.84  0.00 54.76                                                             
C 26.84  0.00 69.36                                                             
C  6.71 16.27 10.95                                                             
C  6.71 16.27 25.56                                                             
C  6.71 16.27 40.16                                                             
C  6.71 16.27 54.76                                                             
C  6.71 16.27 69.36                                                             
C 10.74 13.95 10.95                                                             
C 10.74 13.95 25.56                                                             
C 10.74 13.95 40.16                                                             
C 10.74 13.95 54.76                                                             
C 10.74 13.95 69.36                                                             
C 14.76 11.62 10.95                                                             
C 14.76 11.62 25.56                                                             
C 14.76 11.62 40.16                                                             
C 14.76 11.62 54.76                                                             
C 14.76 11.62 69.36                                                             
C 18.79  9.30 10.95                                                             
C 18.79  9.30 25.56                                                             
C 18.79  9.30 40.16                                                             
C 18.79  9.30 54.76                                                             
C 18.79  9.30 69.36                                                             
C 22.81  6.97 10.95                                                             
C 22.81  6.97 25.56                                                             
C 22.81  6.97 40.16                                                             
C 22.81  6.97 54.76                                                             
C 22.81  6.97 69.36                                                             
C 26.84  4.65 10.95                                                             
C 26.84  4.65 25.56                                                             
C 26.84  4.65 40.16                                                             
C 26.84  4.65 54.76                                                             
C 26.84  4.65 69.36                                                             
C 30.86  2.32 10.95                                                             
C 30.86  2.32 25.56                                                             
C 30.86  2.32 40.16                                                             
C 30.86  2.32 54.76                                                             
C 30.86  2.32 69.36                                                             
C 14.76 16.27 10.95                                                             
C 14.76 16.27 25.56                                                             
C 14.76 16.27 40.16                                                             
C 14.76 16.27 54.76                                                             
C 14.76 16.27 69.36                                                             
C 18.79 13.95 10.95                                                             
C 18.79 13.95 25.56                                                             
C 18.79 13.95 40.16                                                             
C 18.79 13.95 54.76                                                             
C 18.79 13.95 69.36                                                             
C 22.81 11.62 10.95                                                             
C 22.81 11.62 25.56                                                             
C 22.81 11.62 40.16                                                             
C 22.81 11.62 54.76                                                             
C 22.81 11.62 69.36                                                             
C 26.84  9.30 10.95                                                             
C 26.84  9.30 25.56                                                             
C 26.84  9.30 40.16                                                             
C 26.84  9.30 54.76                                                             
C 26.84  9.30 69.36                                                             
C 30.86  6.97 10.95                                                             
C 30.86  6.97 25.56                                                             
C 30.86  6.97 40.16                                                             
C 30.86  6.97 54.76                                                             
C 30.86  6.97 69.36                                                             
C 22.81 16.27 10.95                                                             
C 22.81 16.27 25.56                                                             
C 22.81 16.27 40.16                                                             
C 22.81 16.27 54.76                                                             
C 22.81 16.27 69.36                                                             
C 26.84 13.95 10.95                                                             
C 26.84 13.95 25.56                                                             
C 26.84 13.95 40.16                                                             
C 26.84 13.95 54.76                                                             
C 26.84 13.95 69.36                                                             
C 30.86 11.62 10.95                                                             
C 30.86 11.62 25.56                                                             
C 30.86 11.62 40.16                                                             
C 30.86 11.62 54.76                                                             
C 30.86 11.62 69.36                                                             
C 30.86 16.27 10.95                                                             
C 30.86 16.27 25.56                                                             
C 30.86 16.27 40.16                                                             
C 30.86 16.27 54.76                                                             
C 30.86 16.27 69.36                                                             
%ENDBLOCK POSITIONS_ABS                                                         

--------------------------------------------------------------------------------
-------------------------------- END INPUT FILE --------------------------------
--------------------------------------------------------------------------------


 
<<<<<<<<<<<<<<<<<<<<<<<<<<<<<<<<< Full system >>>>>>>>>>>>>>>>>>>>>>>>>>>>>>>>>>
<<<<<<<<<<<<<<<<<<<<<<<<<<< PAW Dataset information >>>>>>>>>>>>>>>>>>>>>>>>>>>
File: ~/pp/paw/c_pbe_abinit.paw; rc = 1.25 bohr; shape type =  3; rshape = 1.25 bohr;
  Atomic number:  6;  ionic charge:  4.000000
    Partial Wave 1: l = 0
    Partial Wave 2: l = 0
    Partial Wave 3: l = 1
    Partial Wave 4: l = 1
  Core charge supplied for Nonlinear Core Corrections
<<<<<<<<<<<<<<<<<<<<<<<<<<<<<<<<<<<<<<< >>>>>>>>>>>>>>>>>>>>>>>>>>>>>>>>>>>>>>>

-------------------------- Atom counting information ---------------------------
Symbol    Natoms    Nngwfs    Nprojs
  C        640      2560      5120
.......   ......    ......    ......
Totals:    640      2560      5120
--------------------------------------------------------------------------------

=============================== PSINC grid sizes ===============================
                      Simulation cell:   63 x  35 x 144
                              FFT-box:   63 x  35 x 117
                                  PPD:    7 x   5 x   1
Grid space d1=  0.511269841270a0 (KE cutoff=  29.06054Eh = 790.77748eV)
Grid space d2=  0.531142857143a0 (KE cutoff=  26.92659Eh = 732.70972eV)
Grid space d3=  0.507083333333a0 (KE cutoff=  29.54237Eh = 803.88878eV)
================================================================================
  
WARNING in cell_grid_distribute:
Average of less than one 23-slab per node, so workload cannot be
equally balanced between nodes.

********************* Fourier parallelisation information **********************
       Coarse grid (whole simulation cell) dimensions:     63    35   144
          Real-space ('12') slabs/node (min max mean):      3     4     3
         Recip-space ('23') slabs/node (min max mean):      0     1     0
********************************************************************************

********************* Fourier parallelisation information **********************
       Double grid (whole simulation cell) dimensions:    126    70   288
          Real-space ('12') slabs/node (min max mean):      7     8     7
         Recip-space ('23') slabs/node (min max mean):      1     2     1
********************************************************************************

Atom SCF Calculation for C  : Z (AE atom) =   6 : Z (PS atom) =   4
Config String: 2s2 2p2
Orbitals (num,occ):  2     2.00 2.00
Orbitals   (num,l):  2        0    1
Real-space Grid (nr,dr,rmax): 1293    0.0069659443    9.0000000000
Spherical Bessel Basis (nsws,lmax,cutoff):   37    2  161.4736382572
Confining potential (l,width,scale):  0    3.0000000000  100.0000000000
Confining potential (l,width,scale):  1    3.0000000000  100.0000000000
  1         -5.4966243538   -1.3415066196    4.5135257941   -1.6613421942
  2         -5.4660395227   -1.4172174419    4.4326892861   -1.6365362708
  3         -5.4759582348   -1.4337557188    4.4144498970   -1.6324663609
  4         -5.4843804720   -1.4365219414    4.4114201180   -1.6322033818
  5         -5.4882713954   -1.4381734139    4.4096331461   -1.6320227940
  6         -5.4902132675   -1.4390636620    4.4086785626   -1.6319270645
  7         -5.4912093711   -1.4395303631    4.4081823351   -1.6318789226
  8         -5.4917264140   -1.4397726342    4.4079268833   -1.6318551036
  9         -5.4919964206   -1.4398979410    4.4077958777   -1.6318434025
 10         -5.4921379132   -1.4399626875    4.4077287721   -1.6318376788
 11         -5.4922122245   -1.4399961532    4.4076943935   -1.6318348878
 12         -5.4922513136   -1.4400134684    4.4076767658   -1.6318335308
 13         -5.4922719001   -1.4400224400    4.4076677156   -1.6318328728
 14         -5.4922827535   -1.4400270959    4.4076630621   -1.6318325547
 15         -5.4922884809   -1.4400295164    4.4076606653   -1.6318324014
 16         -5.4922915059   -1.4400307770    4.4076594286   -1.6318323279
 17         -5.4922931051   -1.4400314347    4.4076587894   -1.6318322927
 18         -5.4922939512   -1.4400317785    4.4076584583   -1.6318322760
 19         -5.4922943993   -1.4400319585    4.4076582865   -1.6318322681
 20         -5.4922946368   -1.4400320529    4.4076581972   -1.6318322644
 21         -5.4922947627   -1.4400321025    4.4076581507   -1.6318322627
 22         -5.4922948296   -1.4400321287    4.4076581265   -1.6318322619
Atom SCF converged after  22 iterations to a total energy of     -5.49229483

Determining parallel strategy ...
... using space-filling curve
... NGWF load balancing: max     64;  min     64;  average     64
... Projector load balancing: max    128;  min    128;  average    128
... done
Calculating Ewald energy ...
              Ewald: real-space energy =    9490.867672
        Ewald: reciprocal-space energy =       0.535212
         Ewald: (sum_charge)**2 Energy =   10793.259758
         Ewald: (sum_charge**2) Energy =     853.282105
                          Ewald Energy =   -2155.138980
Basis initialisation ...... NGWF spheres initialised
... Projector spheres initialised
... NGWF tight boxes initialised
... Projector tight boxes initialised
... Tight-boxes gathered
... NGWF basis size (local,global):     692628  27897056
... PAW projector initialisation
... done

============================= Charge Augmentation ==============================
                           Aug box size:   11 x  11 x  11
================================================================================

========================== Sparse matrix information ===========================
                        Overlap matrix filling:  40.31%
                        Density kernel filling: 100.00%
              NGWF-Proj overlap matrix filling:  12.19%
                    Aug Overlap matrix filling:  47.03%
                    Hamiltonian matrix filling:  47.03%
                  NGWF diagonal matrix filling:   0.16%
                             KS matrix filling: 100.00% 
                           KSKS matrix filling: 100.00% 
================================================================================

Sparse matrix initialisation ... done
NGWF initialisation ...... done
============ Calculation of NGWF S^-1 using Hotelling algorithm ================ 
         Iteration  |  Frobenius norm and Maximum abs value    (of I-S*S_n^-1)   
               1       0.48916421E+02     0.97405691E+00
               2       0.47597226E+02     0.95001927E+00
               3       0.45654776E+02     0.90679658E+00
               4       0.43182083E+02     0.83531302E+00
               5       0.40247021E+02     0.73055458E+00
               6       0.36875858E+02     0.67173915E+00
               7       0.33417744E+02     0.62503345E+00
               8       0.30099077E+02     0.58502885E+00
               9       0.26443474E+02     0.53830434E+00
              10       0.21750535E+02     0.46354895E+00
              11       0.15677001E+02     0.34715864E+00
              12       0.88853355E+01     0.20006265E+00
              13       0.32941320E+01     0.71584286E-01
              14       0.54549881E+00     0.10688809E-01
              15       0.18209968E-01     0.29827774E-03
              16       0.27700135E-04     0.31581043E-06
              17       0.98316507E-10     0.66968653E-12
================================================================================
Calculating core density ...
================================= Core Density =================================
               Core den box size:   21 x  21 x  21
================================================================================
 ... done
Up spin density kernel initialisation ...... done

Writing density kernel to file "3.8637928_GO_manual_4x64graphite.dkn" ... done

>>> Optimising kernel for current NGWFs:

--------------------------- Ensemble-DFT optimisation --------------------------
Running ScaLAPACK on   40 processor(s).

--------------------------------------------------------------------------------
  Iter                              Commutator    Free_energy(A=E-TS)     DeltaA
#    0                          0.000040332765   -3653.66227507943768  -3.65E+03

Step                       =       0.381966011250
Energy                     =   -3653.662249680309
Entropy (-TS)              =      -0.000025399482
Free energy (A=E-TS)       =   -3653.662275079438
Est. 0K Energy 0.5*(E+A)   =   -3653.662262379873
Residual Non-orthogonality =       0.000000000000
Residual N_electrons       =       0.000000000353

Spin          Integrated_Ne            Fermi_level     Delta_Fermi_level
   1      2559.999999997600         0.147015301774              1.47E-01

                           Spin 1          
     Orb      H-eigenvalues     Occupancies
       1 |    -0.5766407512    1.0000000000 | 
                          ------
    1276 |     0.1112938057    0.9999873767 | 
    1277 |     0.1118250471    0.9999850712 | 
    1278 |     0.1119108677    0.9999846611 | 
    1279 |     0.1119219498    0.9999846073 | 
    1280 |     0.1124544231    0.9999817889 | 
                 - Gap at zero temperature -
    1281 |     0.1835256696    0.0000098398 | 
    1282 |     0.1835277081    0.0000098335 | 
    1283 |     0.1835468600    0.0000097742 | 
    1284 |     0.1836418249    0.0000094855 | 
    1285 |     0.1836533142    0.0000094511 | 
                          ------
    2560 |     0.9811354457    0.0000000000 | 

                       |  Abs_value |  Threshold | Converged
     Delta_Free_energy |   3.65E+03 |   1.00E-06 |        No
     Delta_Energy      |   3.65E+03 |   1.00E-04 |        No
     Delta_Entropy     |   2.54E-05 |   1.00E-04 |       Yes
     Commutator        |   4.03E-05 |   1.00E-05 |        No
     Delta_Fermi_level |   1.47E-01 |   1.00E-03 |        No

  Line search of the free energy minimum:
  Step_type        Step             Free_energy   Predicted_free_energy
.   Initial    0.000000    -3653.66227507943768
.    Trial1    0.381966    -3653.66405228490567
.    Trial2    0.618034    -3653.66450768341656
. Quadratic    0.718867    -3653.66455333228032    -3653.66455249070486

--------------------------------------------------------------------------------
  Iter                              Commutator    Free_energy(A=E-TS)     DeltaA
#    1                          0.000020782282   -3653.66455333228032  -2.28E-03

Step                       =       0.718866840556
Energy                     =   -3653.664528286918
Entropy (-TS)              =      -0.000025045704
Free energy (A=E-TS)       =   -3653.664553332280
Est. 0K Energy 0.5*(E+A)   =   -3653.664540809599
Residual Non-orthogonality =       0.000000000000
Residual N_electrons       =       0.000000000342

Spin          Integrated_Ne            Fermi_level     Delta_Fermi_level
   1      2559.999999997641         0.144825601134             -2.19E-03

                           Spin 1          
     Orb      H-eigenvalues     Occupancies
       1 |    -0.5815055997    1.0000000000 | 
                          ------
    1276 |     0.1091320120    0.9999872650 | 
    1277 |     0.1095563974    0.9999854388 | 
    1278 |     0.1095778352    0.9999853399 | 
    1279 |     0.1096484896    0.9999850091 | 
    1280 |     0.1100951575    0.9999827384 | 
                 - Gap at zero temperature -
    1281 |     0.1812808840    0.0000100125 | 
    1282 |     0.1813015317    0.0000099474 | 
    1283 |     0.1813212315    0.0000098857 | 
    1284 |     0.1814306757    0.0000095499 | 
    1285 |     0.1814343897    0.0000095387 | 
                          ------
    2560 |     0.9770290288    0.0000000000 | 

                       |  Abs_value |  Threshold | Converged
     Delta_Free_energy |   2.28E-03 |   1.00E-06 |        No
     Delta_Energy      |   2.28E-03 |   1.00E-04 |        No
     Delta_Entropy     |   3.54E-07 |   1.00E-04 |       Yes
     Commutator        |   2.08E-05 |   1.00E-05 |        No
     Delta_Fermi_level |   2.19E-03 |   1.00E-03 |        No

  Line search of the free energy minimum:
  Step_type        Step             Free_energy   Predicted_free_energy
.   Initial    0.000000    -3653.66455333228032
.    Trial1    0.718867    -3653.66332540220492
.    Trial2    0.274583    -3653.66495943606105
. Quadratic    0.240376    -3653.66496789769690    -3653.66496782984723

--------------------------------------------------------------------------------
  Iter                              Commutator    Free_energy(A=E-TS)     DeltaA
#    2                          0.000009276605   -3653.66496789769690  -4.15E-04

Step                       =       0.240376145452
Energy                     =   -3653.664942894637
Entropy (-TS)              =      -0.000025003046
Free energy (A=E-TS)       =   -3653.664967897697
Est. 0K Energy 0.5*(E+A)   =   -3653.664955396167
Residual Non-orthogonality =       0.000000000000
Residual N_electrons       =      -0.000000000014

Spin          Integrated_Ne            Fermi_level     Delta_Fermi_level
   1      2560.000000000097         0.144629465072             -1.96E-04

                           Spin 1          
     Orb      H-eigenvalues     Occupancies
       1 |    -0.5819585269    1.0000000000 | 
                          ------
    1276 |     0.1088898942    0.9999874486 | 
    1277 |     0.1093836999    0.9999853306 | 
    1278 |     0.1094046044    0.9999852335 | 
    1279 |     0.1094054543    0.9999852295 | 
    1280 |     0.1099211304    0.9999826174 | 
                 - Gap at zero temperature -
    1281 |     0.1811198595    0.0000099021 | 
    1282 |     0.1811397268    0.0000098402 | 
    1283 |     0.1811598571    0.0000097778 | 
    1284 |     0.1812706732    0.0000094416 | 
    1285 |     0.1812743518    0.0000094306 | 
                          ------
    2560 |     0.9766429285    0.0000000000 | 

                       |  Abs_value |  Threshold | Converged
     Delta_Free_energy |   4.15E-04 |   1.00E-06 |        No
     Delta_Energy      |   4.15E-04 |   1.00E-04 |        No
     Delta_Entropy     |   4.27E-08 |   1.00E-04 |       Yes
     Commutator        |   9.28E-06 |   1.00E-05 |       Yes
     Delta_Fermi_level |   1.96E-04 |   1.00E-03 |       Yes

  Line search of the free energy minimum:
  Step_type        Step             Free_energy   Predicted_free_energy
.   Initial    0.000000    -3653.66496789769690
.    Trial1    0.240376    -3653.66503850198569
.    Trial2    0.530527    -3653.66505189762665
. Quadratic    0.434922    -3653.66505615614915    -3653.66505616272116

--------------------------------------------------------------------------------
  Iter                              Commutator    Free_energy(A=E-TS)     DeltaA
#    3                          0.000005968351   -3653.66505615614915  -8.83E-05

Step                       =       0.434921565471
Energy                     =   -3653.665031215270
Entropy (-TS)              =      -0.000024940633
Free energy (A=E-TS)       =   -3653.665056156149
Est. 0K Energy 0.5*(E+A)   =   -3653.665043685710
Residual Non-orthogonality =       0.000000000000
Residual N_electrons       =      -0.000000000247

Spin          Integrated_Ne            Fermi_level     Delta_Fermi_level
   1      2560.000000001708         0.144357639321             -2.72E-04

                           Spin 1          
     Orb      H-eigenvalues     Occupancies
       1 |    -0.5825705317    1.0000000000 | 
                          ------
    1276 |     0.1085846045    0.9999875805 | 
    1277 |     0.1090990361    0.9999853900 | 
    1278 |     0.1091176262    0.9999853039 | 
    1279 |     0.1091379501    0.9999852093 | 
    1280 |     0.1096534150    0.9999825949 | 
                 - Gap at zero temperature -
    1281 |     0.1808728912    0.0000098247 | 
    1282 |     0.1808919432    0.0000097657 | 
    1283 |     0.1809124756    0.0000097026 | 
    1284 |     0.1810247439    0.0000093647 | 
    1285 |     0.1810284015    0.0000093539 | 
                          ------
    2560 |     0.9761386379    0.0000000000 | 

                       |  Abs_value |  Threshold | Converged
     Delta_Free_energy |   8.83E-05 |   1.00E-06 |        No
     Delta_Energy      |   8.83E-05 |   1.00E-04 |       Yes
     Delta_Entropy     |   6.24E-08 |   1.00E-04 |       Yes
     Commutator        |   5.97E-06 |   1.00E-05 |       Yes
     Delta_Fermi_level |   2.72E-04 |   1.00E-03 |       Yes

  Line search of the free energy minimum:
  Step_type        Step             Free_energy   Predicted_free_energy
.   Initial    0.000000    -3653.66505615614915
.    Trial1    0.434922    -3653.66507504889432
.    Trial2    0.650762    -3653.66502124548560
. Quadratic    0.265748    -3653.66508792979175    -3653.66508792200284

--------------------------------------------------------------------------------
  Iter                              Commutator    Free_energy(A=E-TS)     DeltaA
#    4                          0.000003669091   -3653.66508792979175  -3.18E-05

Step                       =       0.265748250036
Energy                     =   -3653.665063012234
Entropy (-TS)              =      -0.000024917358
[...]
 C   275 -- C   555       -0.10      5.37000
 C   274 -- C   554       -0.10      5.37000
 C   273 -- C   553       -0.10      5.37000
 C   272 -- C   552       -0.10      5.37000
 C   271 -- C   551       -0.10      5.37000
 C   270 -- C   550       -0.10      5.37000
 C   269 -- C   549       -0.10      5.37000
 C   268 -- C   548       -0.10      5.37000
 C   267 -- C   547       -0.10      5.37000
 C   266 -- C   546       -0.10      5.37000
 C   130 -- C   465       -0.10      5.37000
 C   129 -- C   464       -0.10      5.37000
 C   128 -- C   463       -0.10      5.37000
 C   127 -- C   462       -0.10      5.37000
 C   126 -- C   461       -0.10      5.37000
 C   240 -- C   525       -0.10      5.37000
 C   239 -- C   524       -0.10      5.37000
 C   238 -- C   523       -0.10      5.37000
 C   237 -- C   522       -0.10      5.37000
 C   236 -- C   521       -0.10      5.37000
 C    23 -- C   478       -0.10      5.37202
 C    49 -- C   469       -0.10      5.37202
 C    48 -- C   468       -0.10      5.37202
 C    47 -- C   467       -0.10      5.37202
 C    22 -- C   477       -0.10      5.37202
 C    46 -- C   466       -0.10      5.37202
 C    21 -- C   476       -0.10      5.37202
 C    25 -- C   480       -0.10      5.37202
 C    24 -- C   479       -0.10      5.37202
 C    50 -- C   470       -0.10      5.37202
 C    24 -- C   449       -0.10      5.37202
 C     6 -- C   416       -0.10      5.37202
 C    23 -- C   448       -0.10      5.37202
 C    22 -- C   447       -0.10      5.37202
 C    10 -- C   470       -0.10      5.37202
 C     5 -- C   450       -0.10      5.37202
 C    21 -- C   446       -0.10      5.37202
 C    10 -- C   420       -0.10      5.37202
 C     9 -- C   469       -0.10      5.37202
 C     9 -- C   419       -0.10      5.37202
 C     8 -- C   468       -0.10      5.37202
 C     4 -- C   449       -0.10      5.37202
 C     8 -- C   418       -0.10      5.37202
 C   285 -- C   580       -0.10      5.37202
 C   284 -- C   579       -0.10      5.37202
 C   283 -- C   578       -0.10      5.37202
 C   282 -- C   577       -0.10      5.37202
 C   281 -- C   576       -0.10      5.37202
 C     2 -- C   447       -0.10      5.37202
 C     7 -- C   467       -0.10      5.37202
 C   260 -- C   605       -0.10      5.37202
 C   259 -- C   604       -0.10      5.37202
 C   258 -- C   603       -0.10      5.37202
 C   257 -- C   602       -0.10      5.37202
 C   256 -- C   601       -0.10      5.37202
 C     7 -- C   417       -0.10      5.37202
 C     1 -- C   446       -0.10      5.37202
 C     6 -- C   466       -0.10      5.37202
 C    25 -- C   450       -0.10      5.37202
 C     3 -- C   448       -0.10      5.37202
 C   219 -- C   569       -0.10      5.37202
 C   218 -- C   568       -0.10      5.37202
 C   217 -- C   567       -0.10      5.37202
 C   216 -- C   566       -0.10      5.37202
 C   250 -- C   540       -0.10      5.37202
 C   249 -- C   539       -0.10      5.37202
 C   248 -- C   538       -0.10      5.37202
 C   247 -- C   537       -0.10      5.37202
 C   246 -- C   536       -0.10      5.37202
 C   220 -- C   570       -0.10      5.37202
 C   205 -- C   550       -0.10      5.37202
 C   204 -- C   549       -0.10      5.37202
 C   203 -- C   548       -0.10      5.37202
 C   202 -- C   547       -0.10      5.37202
 C   201 -- C   546       -0.10      5.37202
 C    95 -- C   365       -0.10      5.37202
 C    94 -- C   364       -0.10      5.37202
 C    93 -- C   363       -0.10      5.37202
 C    92 -- C   362       -0.10      5.37202
 C    91 -- C   361       -0.10      5.37202
 C    65 -- C   395       -0.10      5.37202
 C    64 -- C   394       -0.10      5.37202
 C    63 -- C   393       -0.10      5.37202
 C    30 -- C   355       -0.10      5.37202
 C    62 -- C   392       -0.10      5.37202
 C    61 -- C   391       -0.10      5.37202
 C    29 -- C   354       -0.10      5.37202
 C   260 -- C   550       -0.10      5.37202
 C   259 -- C   549       -0.10      5.37202
 C    28 -- C   353       -0.10      5.37202
 C   258 -- C   548       -0.10      5.37202
 C   257 -- C   547       -0.10      5.37202
 C   256 -- C   546       -0.10      5.37202
 C    27 -- C   352       -0.10      5.37202
 C    26 -- C   351       -0.10      5.37202
 C    55 -- C   335       -0.10      5.37202
 C    54 -- C   334       -0.10      5.37202
 C    53 -- C   333       -0.10      5.37202
 C   230 -- C   580       -0.10      5.37202
 C   230 -- C   525       -0.10      5.37202
 C   229 -- C   579       -0.10      5.37202
 C   229 -- C   524       -0.10      5.37202
 C   228 -- C   578       -0.10      5.37202
 C    52 -- C   332       -0.10      5.37202
 C   228 -- C   523       -0.10      5.37202
 C   227 -- C   577       -0.10      5.37202
 C   227 -- C   522       -0.10      5.37202
 C   226 -- C   576       -0.10      5.37202
 C   226 -- C   521       -0.10      5.37202
 C    51 -- C   331       -0.10      5.37202
 C   220 -- C   515       -0.10      5.37202
 C   219 -- C   514       -0.10      5.37202
 C   218 -- C   513       -0.10      5.37202
 C   217 -- C   512       -0.10      5.37202
 C   216 -- C   511       -0.10      5.37202
 C   195 -- C   540       -0.10      5.37202
 C   195 -- C   500       -0.10      5.37202
 C   194 -- C   539       -0.10      5.37202
 C   194 -- C   499       -0.10      5.37202
 C   193 -- C   538       -0.10      5.37202
 C   193 -- C   498       -0.10      5.37202
 C   192 -- C   537       -0.10      5.37202
 C   192 -- C   497       -0.10      5.37202
 C   191 -- C   536       -0.10      5.37202
 C   191 -- C   496       -0.10      5.37202
 C   180 -- C   515       -0.10      5.37202
 C   179 -- C   514       -0.10      5.37202
 C   178 -- C   513       -0.10      5.37202
 C   177 -- C   512       -0.10      5.37202
 C   176 -- C   511       -0.10      5.37202
 C   150 -- C   440       -0.10      5.37202
 C   149 -- C   439       -0.10      5.37202
 C   148 -- C   438       -0.10      5.37202
 C   147 -- C   437       -0.10      5.37202
 C   146 -- C   436       -0.10      5.37202
 C   135 -- C   460       -0.10      5.37202
 C   134 -- C   459       -0.10      5.37202
 C   133 -- C   458       -0.10      5.37202
 C   132 -- C   457       -0.10      5.37202
 C   131 -- C   456       -0.10      5.37202
 C    11 -- C   331       -0.10      5.37202
 C    95 -- C   425       -0.10      5.37202
 C    94 -- C   424       -0.10      5.37202
 C    93 -- C   423       -0.10      5.37202
 C    92 -- C   422       -0.10      5.37202
 C    91 -- C   421       -0.10      5.37202
 C    85 -- C   355       -0.10      5.37202
 C    40 -- C   365       -0.10      5.37202
 C    84 -- C   354       -0.10      5.37202
 C    83 -- C   353       -0.10      5.37202
 C    82 -- C   352       -0.10      5.37202
 C    39 -- C   364       -0.10      5.37202
 C    81 -- C   351       -0.10      5.37202
 C    38 -- C   363       -0.10      5.37202
 C    37 -- C   362       -0.10      5.37202
 C    36 -- C   361       -0.10      5.37202
 C    15 -- C   335       -0.10      5.37202
 C    65 -- C   345       -0.10      5.37202
 C    64 -- C   344       -0.10      5.37202
 C    63 -- C   343       -0.10      5.37202
 C    30 -- C   325       -0.10      5.37202
 C    62 -- C   342       -0.10      5.37202
 C    14 -- C   334       -0.10      5.37202
 C    61 -- C   341       -0.10      5.37202
 C    29 -- C   324       -0.10      5.37202
 C    28 -- C   323       -0.10      5.37202
 C    13 -- C   333       -0.10      5.37202
 C    27 -- C   322       -0.10      5.37202
 C   120 -- C   395       -0.10      5.37202
 C    55 -- C   385       -0.10      5.37202
 C   119 -- C   394       -0.10      5.37202
 C   118 -- C   393       -0.10      5.37202
 C   117 -- C   392       -0.10      5.37202
 C    54 -- C   384       -0.10      5.37202
 C    26 -- C   321       -0.10      5.37202
 C   116 -- C   391       -0.10      5.37202
 C    53 -- C   383       -0.10      5.37202
 C    12 -- C   332       -0.10      5.37202
 C    52 -- C   382       -0.10      5.37202
 C    51 -- C   381       -0.10      5.37202
 C   106 -- C   436       -0.10      5.37202
 C   106 -- C   376       -0.10      5.37202
 C    80 -- C   410       -0.10      5.37202
 C    79 -- C   409       -0.10      5.37202
 C    78 -- C   408       -0.10      5.37202
 C    77 -- C   407       -0.10      5.37202
 C    76 -- C   406       -0.10      5.37202
 C   135 -- C   410       -0.10      5.37202
 C   134 -- C   409       -0.10      5.37202
 C   133 -- C   408       -0.10      5.37202
 C   132 -- C   407       -0.10      5.37202
 C   131 -- C   406       -0.10      5.37202
 C   110 -- C   440       -0.10      5.37202
 C   110 -- C   380       -0.10      5.37202
 C   109 -- C   439       -0.10      5.37202
 C   109 -- C   379       -0.10      5.37202
 C   108 -- C   438       -0.10      5.37202
 C   108 -- C   378       -0.10      5.37202
 C   107 -- C   437       -0.10      5.37202
 C   107 -- C   377       -0.10      5.37202
 C   215 -- C   635       -0.10      5.38000
 C   214 -- C   634       -0.10      5.38000
 C   213 -- C   633       -0.10      5.38000
 C   212 -- C   632       -0.10      5.38000
 C   211 -- C   631       -0.10      5.38000
 C   190 -- C   620       -0.10      5.38000
 C   189 -- C   619       -0.10      5.38000
 C   188 -- C   618       -0.10      5.38000
 C   187 -- C   617       -0.10      5.38000
 C   186 -- C   616       -0.10      5.38000
 C   175 -- C   595       -0.10      5.38000
 C   174 -- C   594       -0.10      5.38000
 C   173 -- C   593       -0.10      5.38000
 C   172 -- C   592       -0.10      5.38000
 C   171 -- C   591       -0.10      5.38000
 C   245 -- C   640       -0.10      5.38000
 C   244 -- C   639       -0.10      5.38000
 C   243 -- C   638       -0.10      5.38000
 C   242 -- C   637       -0.10      5.38000
 C   241 -- C   636       -0.10      5.38000
==================================================


=================== Orbital energy and occupancy information ===================

      Total number of orbitals:    2560
        Occupancy sum (kernel):    1279.999999999
   Occupancy sum (eigenvalues):    1279.999999999
                 HOMO-LUMO gap:       0.067847527 Eh
                 Mid-gap level:       0.205692518 Eh

                        Orbital | Energy (Eh) | Occupancy
                            1    -0.515973499   1.0000000
                        .......   ...........   .........
                         1271     0.168142015   0.9999892
                         1272     0.168157794   0.9999892
                         1273     0.168613154   0.9999875
                         1274     0.168629005   0.9999874
                         1275     0.170488501   0.9999774
                         1276     0.170495311   0.9999774
                         1277     0.170959768   0.9999738
                         1278     0.170966501   0.9999737
                         1279     0.171298555   0.9999708
                         1280     0.171768755   0.9999662
                        ....... -- gap at 0K -- .........
                         1281     0.239616282   0.0000146
                         1282     0.239619591   0.0000146
                         1283     0.239813140   0.0000138
                         1284     0.239825705   0.0000137
                         1285     0.239868675   0.0000135
                         1286     0.239872174   0.0000135
                         1287     0.239973211   0.0000131
                         1288     0.240074101   0.0000127
                         1289     0.240086601   0.0000126
                         1290     0.240213190   0.0000121
                        .......   ...........   .........
                         2560     1.100008852   0.0000000

================================================================================

===================== Writing canonical molecular orbitals =====================
| Orbital  Energy (eV)  Norm     |
| HOMO      4.67406566  1.000000 | Writing "3.8637928_GO_manual_4x64graphite_HOMO.cube" ... done
Writing "3.8637928_GO_manual_4x64graphite_HOMO.dx" ... done
| LUMO      6.52029081  1.000000 | Writing "3.8637928_GO_manual_4x64graphite_LUMO.cube" ... done
Writing "3.8637928_GO_manual_4x64graphite_LUMO.dx" ... done
================================================================================
 
===================== Density of States (DOS) calculation ======================
Writing "3.8637928_GO_manual_4x64graphite_DOS.txt" ...  done
================================================================================
 
Writing bands to file "3.8637928_GO_manual_4x64graphite.val_bands" ... done
 
================ Projected Density of States (pDOS) calculation ================
 
Constructing AM resolved functions  ...... done
Writing NGWF plot files in formats: CUBE DX ...  done
 
Performing overlap integrals ...  done
 
Computing pDOS weights ...  done
 
All bands spilling parameter =   2.96 %
Occupancy-weighted spilling parameter =   0.98 %
 
 => Outputting data for OptaDOS <=
 
Writing pDOS weights to file "3.8637928_GO_manual_4x64graphite.val_pdos_bin" ... done
 
Writing band gradients to file "3.8637928_GO_manual_4x64graphite.val_dome_bin" ... done
 
Writing Castep output cell file to "3.8637928_GO_manual_4x64graphite-out.cell" ... done
 
 => Computing Gaussian smeared pDOS <= 
Writing "3.8637928_GO_manual_4x64graphite_PDOS.txt" ...  done
 
 => Computing Occupancy-weighted Gaussian smeared pDOS <= 
Writing "3.8637928_GO_manual_4x64graphite_occ_PDOS.txt" ...  done
  => Band centres: 
 S band centre of group 1:  -13.808922 eV
 P band centre of group 1:   -6.656097 eV
  Band centres done. <=
  => Integrated number of electrons in each AM band: 
 S num electrons of group 1:  577.104764
 P num electrons of group 1: 1957.852354
  Integrated number of electrons done. <=
================================================================================

------------------------------ TIMING INFORMATION ------------------------------
AVERAGE TIME:    3065.127s on     40 node(s)                                    
TOTAL TIME:      3065.127s on     40 node(s)                                    
================= AVERAGE TIMINGS FROM ALL NODES (CUMULATIVE) ==================
|| TAG                                    #calls    cpu time   %total  Gflops ||
|| work_imbalance                       :     1        0.00s   0.000%  ------ ||
|| paw_tcore_hartree_on_grid            :     1        0.00s   0.000%  ------ ||
|| paw_tcore_density                    :     1        0.01s   0.000%  ------ ||
|| paw_sphere_density_on_grid           :     1        0.01s   0.000%  ------ ||
|| sparse_set_to_garbage                :   135        0.02s   0.001%  ------ ||
|| paw_dij_hartree                      :   278        0.04s   0.001%  ------ ||
|| pseudo_make_structure_factor         :     1        0.06s   0.002%  ------ ||
|| basis_extract_function_from_box      :  1536        0.06s   0.002%  ------ ||
|| paw_species_calc_proj_prec_mat       :     1        0.13s   0.004%  ------ ||
|| paw_dataset_init                     :     1        0.15s   0.005%  ------ ||
|| density_init_guess_real              :     1        0.29s   0.009%  ------ ||
|| ngwfs_initialise_from_radial         :     2        0.67s   0.022%  ------ ||
|| restart_kernel_write                 :    13        0.79s   0.026%  ------ ||
|| sparse_init                          :     1        0.84s   0.027%  ------ ||
|| dense_normal_eigensolve              :     1        0.98s   0.032%  ------ ||
|| hartree_on_grid                      :   209        1.11s   0.036%  ------ ||
|| projectors_init_fftbox_recip         :   121        2.34s   0.076%  ------ ||
|| ewald_calculate_energy               :     1        3.29s   0.107%  ------ ||
|| fourier_apply_box_pair               :  2272        3.76s   0.123% 560.392 ||
|| basis_copy_function_to_box           : 19904        4.31s   0.141%  ------ ||
|| augmentation_screen_dij              :   214        4.78s   0.156%  ------ ||
|| sparse_embed_hotelling_invert_embed  :    23        6.46s   0.211%  ------ ||
|| sw_init                              :     1        6.73s   0.220%  ------ ||
|| ngwf_gradient_coeffs                 :    12        8.37s   0.273%  ------ ||
|| sparse_trace                         :  2516       11.14s   0.363%  ------ ||
|| fourier_apply_cell_backward          :  6450       13.02s   0.425%  67.657 ||
|| fourier_apply_cell_forward           :  6033       13.37s   0.436%  61.636 ||
|| cell_grid_extract_box_real           :  8428       15.14s   0.494%  ------ ||
|| cell_grid_deposit_box_real           : 26928       16.25s   0.530%  ------ ||
|| paw_dij_xc                           :   278       18.30s   0.597%  ------ ||
|| aug_nonlocal_mat                     :   266       26.94s   0.879%  ------ ||
|| density_fftbox_deposit_to_cell       : 13376       32.05s   1.046%  ------ ||
|| augmentation_density_on_grid         :   209       35.99s   1.174%  ------ ||
|| hamiltonian_energy_components        :     3       46.98s   1.533%  ------ ||
|| function_ops_brappd_ketppd           :    48       47.71s   1.556%  ------ ||
|| eigenstates_pdos                     :     1       53.54s   1.747%  ------ ||
|| projectors_func_ovlp_box             :    24       53.73s   1.753%  ------ ||
|| nlxc_vdw_energy                      :   416       57.58s   1.879%  ------ ||
|| eigenstates_calculate                :     1       57.92s   1.890%  ------ ||
|| xc_energy_potential                  :   208       63.50s   2.072%  ------ ||
|| integrals_kinetic                    :    23       76.30s   2.489%  ------ ||
|| dense_eigensolve                     :   182       91.40s   2.982%  ------ ||
|| sparse_product                       :  2552       98.93s   3.228%  ------ ||
|| potential_apply_to_ngwf_batch        :   264      102.18s   3.334%  ------ ||
|| properties_calculate                 :     1      106.61s   3.478%  ------ ||
|| restart_ngwfs_tightbox_output        :    11      117.71s   3.840%  ------ ||
|| basis_dot_function_with_box          : 6.078M     167.51s   5.465%  ------ ||
|| fourier_apply_box                    : 62736      194.66s   6.351% 979.059 ||
|| edft_diag_ngwf_ham                   :   181      202.48s   6.606%  ------ ||
|| projectors_gradient_batch            :    48      217.77s   7.105%  ------ ||
|| integrals_locpot_mat_els_batch       :   264      225.45s   7.355%  ------ ||
|| density_fftbox_interpolate_multiply  : 13376      259.52s   8.467%  ------ ||
|| projectors_grad_precond_batch        :    48      300.28s   9.797%  ------ ||
|| density_batch_interp_deposit         :   836      322.33s  10.516%  ------ ||
|| integrals_locpot_dbl_grid            :    66      328.75s  10.725%  ------ ||
|| edft_apply_smearing_operator         :   181      392.51s  12.806%  ------ ||
|| basis_add_function_to_box            : 16.97M     451.29s  14.723%  ------ ||
|| ngwf_gradient_build_batch            :    48      554.26s  18.083%  ------ ||
|| density_batch_row_sums               :   836      635.67s  20.739%  ------ ||
|| ngwf_gradient_batch                  :    48      734.61s  23.967%  ------ ||
|| ngwf_gradient_lnv                    :    12      761.11s  24.831%  ------ ||
|| density_on_dbl_grid                  :   209      970.15s  31.651%  ------ ||
|| hamiltonian_lhxc_calculate           :   204     1047.00s  34.158%  ------ ||
|| edft_calculate                       :    12     1745.66s  56.952%  ------ ||
|| ngwf_cg_optimise                     :     1     2933.07s  95.691%  ------ ||
|| total_time                           :     1     3065.13s 100.000%  ------ ||
================================================================================
Overhead of generating timer report: 
- 0 ms averaging over threads,
- 5 ms ensuring consistency across MPI ranks,
- 0 ms printing in order.

Job completed: 29-02-2020 11:32 (-0000)

