 +---------------------------------------------------------------+
 |                                                               |
 |        ####### #     # ####### ####### ####### ######         |
 |        #     # ##    # #          #    #       #     #        |
 |        #     # # #   # #          #    #       #     #        |
 |        #     # #  #  # #####      #    #####   ######         |
 |        #     # #   # # #          #    #       #              |
 |        #     # #    ## #          #    #       #              |
 |        ####### #     # #######    #    ####### #              |
 |                                                               |
 |        Linear-Scaling Ab Initio Total Energy Program          |
 |                                                               |
 |          Release for academic collaborators of ODG            |
 |                                             Version 5.3.2.12  |
 |                                                               |
 +---------------------------------------------------------------+
 |                                                               |
 |  Authors:                                                     |
 |  Jacek Dziedzic, Peter D. Haynes, Nicholas D. M. Hine,        |
 |  Arash. A. Mostofi, Mike C. Payne and Chris-Kriton Skylaris   |
 |                                                               |
 |  Contributors:                                                |
 |  J. Aarons, L. Andrinopoulos, P. W. Avraam, R. A. Bell,       |
 |  A. Bhandari, G. A. Bramley, R. J. Charlton, S. J. Clark,     |
 |  R. J. Clements, G. C. Constantinescu, F. Corsetti,           |
 |  N. Corsini, O. Dieguez, S. M. M. Dubois, K. K. B. Duff,      |
 |  J. M. Escartin, A. Greco, H. Helal, Q. O. Hill, L. P. Lee,   |
 |  J.-H. Li, E. B. Linscott, G. Moynihan, D. D. O`Regan,        |
 |  O. K. Okan, M. J. S. Phipps, C. J. Pickard,                  |
 |  J. C. A. Prentice, M. I. J. Probert, L. E. Ratcliff,         |
 |  M. Robinson, A. Ruiz Serrano, J. S. Spencer, E. W. Tait,     |
 |  G. Teobaldi, D. Turban, V. Vitale, K. A. Wilkinson,          |
 |  C. Weber, J. C. Womack, N. Yeung and T. J. Zuehlsdorff       |
 |                                                               |
 |                                   Copyright (c) 2004-2020     |
 |                                                               |
 |  Please cite:                                                 |
 |  "Introducing ONETEP: Linear-scaling density functional       |
 |   simulations on parallel computers".                         |
 |   C.-K. Skylaris, P. D. Haynes, A. A. Mostofi, M. C. Payne.   |
 |   J. Chem. Phys. 122 084119 (2005).                           |
 |                                                               |
 |          in all publications arising from your use of ONETEP. |
 |                                                               |
 +---------------------------------------------------------------+
 |                                                               |
 |   ONETEP is based on developments described in the following  |
 |   publications:                                               |
 |                                                               |
 |  "Nonorthogonal generalized Wannier function pseudopotential  |
 |   plane-wave method".                                         |
 |   C.-K. Skylaris, A. A. Mostofi, P. D. Haynes, O. Dieguez,    |
 |   M. C. Payne.                                                |
 |   Phys. Rev. B 66 035119 (2002).                              |
 |                                                               |
 |  "Preconditioned iterative minimization for linear-scaling    |
 |   electronic structure calculations".                         |
 |   A. A. Mostofi, P. D. Haynes, C.-K. Skylaris, M. C. Payne.   |
 |   J. Chem. Phys. 119(17), pp.8842-8848 (2003).                |
 |                                                               |
 |  "Total-energy calculations on a real space grid with         |
 |   localized functions and a plane-wave basis".                |
 |   A. A. Mostofi, C.-K. Skylaris, P. D. Haynes, M. C. Payne.   |
 |   Comput. Phys. Commun. 147, pp.788-802 (2002).               |
 |                                                               |
 |  "Accurate kinetic energy evaluation in electronic structure  |
 |   calculations with localized functions on real space grids"  |
 |   C.-K. Skylaris, A. A. Mostofi, P. D. Haynes, C. J. Pickard, |
 |   M. C. Payne.                                                |
 |   Comput. Phys. Commun. 140, pp.315-322 (2001).               |
 |                                                               |
 |  "Accurate ionic forces and geometry optimization in linear-  |
 |   scaling density-functional theory with local orbitals"      |
 |   N. D. M. Hine, M. Robinson, P. D. Haynes, C.-K. Skylaris,   |
 |   M. C. Payne, and A. A. Mostofi.                             |
 |   Phys. Rev. B 83 195102 (2011).                              |
 |                                                               |
 +---------------------------------------------------------------+

Job started: 06-03-2020 00:50 (-0000)
 
Reading parameters from file "4.69556_GO_manual_4x64graphite.dat" ...

WARNING: "cutoff_energy" not specified, but "psinc_spacing" specified.
         Using the latter to set the KE cutoff energy to  732.32021eV,
         thus *overriding* the default.

... done

If your calculation crashes here, before "Checking processes and threads..."
is displayed, then your stack size is insufficient.
If so, use "ulimit -s unlimited" at runtime.
You can disable this check with "check_stack_size F".

Checking processes and threads...
   Determining the default number of threads...
      No default threads set at compilation time: defaulting to 1.
      OpenMP library call suggests 4 threads.
      Hybrid MPI-OpenMP compilation detected.
      Number of MPI processes > 1.
      OMP_NUM_THREADS environment variable present and
      its value matches the one obtained from the OpenMP library call.
      Using this value as default.
      Default threads: 4
      Default applies to threads_max and threads_num_fftboxes.
      Settings in the input file override this default.
   ... done

   Running with 40 MPI processes.
   There are 10 MPI processes running on the same node as the root process.
   Each MPI process is using: 
               1 threads for simulation cell FFTs.
               1 threads for parallel FFT box operations.
               4 threads for loops over batched FFT box operations.
               4 threads in other parallel regions.
... done

Basic input checks...
Resetting ngwf_cg_rotate to TRUE for EDFT calculations
... done

Reading geometry and species blocks from file "4.69556_GO_manual_4x64graphite.dat" ...
    
  PSINC grid spacing along a1 set to   0.511215680000a0 from input file.
  PSINC grid spacing along a2 set to   0.531284090000a0 from input file.
  PSINC grid spacing along a3 set to   0.507048030000a0 from input file.
  Number of PPD points along a3 set to 1.  This is 
  the default value, it may have been provided also in the input file.
... done
 Writing xyz coordinates to file "4.69556_GO_manual_4x64graphite.xyz" ... done


--------------------------------------------------------------------------------
---------------------------------- INPUT FILE ----------------------------------
--------------------------------------------------------------------------------

task : singlepoint                                                              
do_properties : true                                                            
dx_format T                                                                     
edft T                                                                          
output_detail VERBOSE                                                           
write_xyz T                                                                     
xc_functional VDWDF                                                             
PSINC_SPACING 0.51121568 0.53128409 0.50704803                                  
paw T                                                                           
pdos_max_l = 2                                                                  
dos_smear  0.1 eV                                                               
popn_calculate T                                                                
PDOS_PSEUDOATOMIC T                                                             
PDOS_REDUCE_SWS F                                                               
PDOS_CONSTRUCT_BASIS F                                                          
PDOS_LOWDIN T                                                                   
PDOS_ORTH_ATOM_BLOCKS F                                                         
PDOS_LCAO_OPTIMIZE F                                                            
pdos_optados_output T                                                           
homo_plot 0                                                                     
lumo_plot 0                                                                     
homo_dens_plot -1                                                               
lumo_dens_plot -1                                                               
%BLOCK SPECIES                                                                  
C C 6 4 9.0                                                                     
%ENDBLOCK SPECIES                                                               
%BLOCK SPECIES_POT                                                              
C "~/pp/paw/c_pbe_abinit.paw"                                                   
%ENDBLOCK SPECIES_POT                                                           
%BLOCK SPECIES_ATOMIC_SET                                                       
C "SOLVE conf=2s2 2p2"                                                          
%ENDBLOCK SPECIES_ATOMIC_SET                                                    
%BLOCK LATTICE_CART                                                             
32.21  0.00  0.00                                                               
0.00 18.59  0.00                                                                
0.00  0.00 88.73                                                                
%ENDBLOCK LATTICE_CART                                                          
%BLOCK POSITIONS_ABS                                                            
C  0.00  0.00  4.44                                                             
C  0.00  0.00 22.18                                                             
C  0.00  0.00 39.93                                                             
C  0.00  0.00 57.68                                                             
C  0.00  0.00 75.42                                                             
C  0.00  4.65  4.44                                                             
C  0.00  4.65 22.18                                                             
C  0.00  4.65 39.93                                                             
C  0.00  4.65 57.68                                                             
C  0.00  4.65 75.42                                                             
C  4.03  2.32  4.44                                                             
C  4.03  2.32 22.18                                                             
C  4.03  2.32 39.93                                                             
C  4.03  2.32 57.68                                                             
C  4.03  2.32 75.42                                                             
C  8.05  0.00  4.44                                                             
C  8.05  0.00 22.18                                                             
C  8.05  0.00 39.93                                                             
C  8.05  0.00 57.68                                                             
C  8.05  0.00 75.42                                                             
C  0.00  9.30  4.44                                                             
C  0.00  9.30 22.18                                                             
C  0.00  9.30 39.93                                                             
C  0.00  9.30 57.68                                                             
C  0.00  9.30 75.42                                                             
C  4.03  6.97  4.44                                                             
C  4.03  6.97 22.18                                                             
C  4.03  6.97 39.93                                                             
C  4.03  6.97 57.68                                                             
C  4.03  6.97 75.42                                                             
C  8.05  4.65  4.44                                                             
C  8.05  4.65 22.18                                                             
C  8.05  4.65 39.93                                                             
C  8.05  4.65 57.68                                                             
C  8.05  4.65 75.42                                                             
C 12.08  2.32  4.44                                                             
C 12.08  2.32 22.18                                                             
C 12.08  2.32 39.93                                                             
C 12.08  2.32 57.68                                                             
C 12.08  2.32 75.42                                                             
C 16.10  0.00  4.44                                                             
C 16.10  0.00 22.18                                                             
C 16.10  0.00 39.93                                                             
C 16.10  0.00 57.68                                                             
C 16.10  0.00 75.42                                                             
C  0.00 13.95  4.44                                                             
C  0.00 13.95 22.18                                                             
C  0.00 13.95 39.93                                                             
C  0.00 13.95 57.68                                                             
C  0.00 13.95 75.42                                                             
C  4.03 11.62  4.44                                                             
C  4.03 11.62 22.18                                                             
C  4.03 11.62 39.93                                                             
C  4.03 11.62 57.68                                                             
C  4.03 11.62 75.42                                                             
C  8.05  9.30  4.44                                                             
C  8.05  9.30 22.18                                                             
C  8.05  9.30 39.93                                                             
C  8.05  9.30 57.68                                                             
C  8.05  9.30 75.42                                                             
C 12.08  6.97  4.44                                                             
C 12.08  6.97 22.18                                                             
C 12.08  6.97 39.93                                                             
C 12.08  6.97 57.68                                                             
C 12.08  6.97 75.42                                                             
C 16.10  4.65  4.44                                                             
C 16.10  4.65 22.18                                                             
C 16.10  4.65 39.93                                                             
C 16.10  4.65 57.68                                                             
C 16.10  4.65 75.42                                                             
C 20.13  2.32  4.44                                                             
C 20.13  2.32 22.18                                                             
C 20.13  2.32 39.93                                                             
C 20.13  2.32 57.68                                                             
C 20.13  2.32 75.42                                                             
C 24.16  0.00  4.44                                                             
C 24.16  0.00 22.18                                                             
C 24.16  0.00 39.93                                                             
C 24.16  0.00 57.68                                                             
C 24.16  0.00 75.42                                                             
C  4.03 16.27  4.44                                                             
C  4.03 16.27 22.18                                                             
C  4.03 16.27 39.93                                                             
C  4.03 16.27 57.68                                                             
C  4.03 16.27 75.42                                                             
C  8.05 13.95  4.44                                                             
C  8.05 13.95 22.18                                                             
C  8.05 13.95 39.93                                                             
C  8.05 13.95 57.68                                                             
C  8.05 13.95 75.42                                                             
C 12.08 11.62  4.44                                                             
C 12.08 11.62 22.18                                                             
C 12.08 11.62 39.93                                                             
C 12.08 11.62 57.68                                                             
C 12.08 11.62 75.42                                                             
C 16.10  9.30  4.44                                                             
C 16.10  9.30 22.18                                                             
C 16.10  9.30 39.93                                                             
C 16.10  9.30 57.68                                                             
C 16.10  9.30 75.42                                                             
C 20.13  6.97  4.44                                                             
C 20.13  6.97 22.18                                                             
C 20.13  6.97 39.93                                                             
C 20.13  6.97 57.68                                                             
C 20.13  6.97 75.42                                                             
C 24.16  4.65  4.44                                                             
C 24.16  4.65 22.18                                                             
C 24.16  4.65 39.93                                                             
C 24.16  4.65 57.68                                                             
C 24.16  4.65 75.42                                                             
C 28.18  2.32  4.44                                                             
C 28.18  2.32 22.18                                                             
C 28.18  2.32 39.93                                                             
C 28.18  2.32 57.68                                                             
C 28.18  2.32 75.42                                                             
C 12.08 16.27  4.44                                                             
C 12.08 16.27 22.18                                                             
C 12.08 16.27 39.93                                                             
C 12.08 16.27 57.68                                                             
C 12.08 16.27 75.42                                                             
C 16.10 13.95  4.44                                                             
C 16.10 13.95 22.18                                                             
C 16.10 13.95 39.93                                                             
C 16.10 13.95 57.68                                                             
C 16.10 13.95 75.42                                                             
C 20.13 11.62  4.44                                                             
C 20.13 11.62 22.18                                                             
C 20.13 11.62 39.93                                                             
C 20.13 11.62 57.68                                                             
C 20.13 11.62 75.42                                                             
C 24.16  9.30  4.44                                                             
C 24.16  9.30 22.18                                                             
C 24.16  9.30 39.93                                                             
C 24.16  9.30 57.68                                                             
C 24.16  9.30 75.42                                                             
C 28.18  6.97  4.44                                                             
C 28.18  6.97 22.18                                                             
C 28.18  6.97 39.93                                                             
C 28.18  6.97 57.68                                                             
C 28.18  6.97 75.42                                                             
C 20.13 16.27  4.44                                                             
C 20.13 16.27 22.18                                                             
C 20.13 16.27 39.93                                                             
C 20.13 16.27 57.68                                                             
C 20.13 16.27 75.42                                                             
C 24.16 13.95  4.44                                                             
C 24.16 13.95 22.18                                                             
C 24.16 13.95 39.93                                                             
C 24.16 13.95 57.68                                                             
C 24.16 13.95 75.42                                                             
C 28.18 11.62  4.44                                                             
C 28.18 11.62 22.18                                                             
C 28.18 11.62 39.93                                                             
C 28.18 11.62 57.68                                                             
C 28.18 11.62 75.42                                                             
C 28.18 16.27  4.44                                                             
C 28.18 16.27 22.18                                                             
C 28.18 16.27 39.93                                                             
C 28.18 16.27 57.68                                                             
C 28.18 16.27 75.42                                                             
C  0.00  0.00 13.31                                                             
C  0.00  0.00 31.06                                                             
C  0.00  0.00 48.80                                                             
C  0.00  0.00 66.55                                                             
C  0.00  0.00 84.30                                                             
C  0.00  4.65 13.31                                                             
C  0.00  4.65 31.06                                                             
C  0.00  4.65 48.80                                                             
C  0.00  4.65 66.55                                                             
C  0.00  4.65 84.30                                                             
C  4.03  2.32 13.31                                                             
C  4.03  2.32 31.06                                                             
C  4.03  2.32 48.80                                                             
C  4.03  2.32 66.55                                                             
C  4.03  2.32 84.30                                                             
C  8.05  0.00 13.31                                                             
C  8.05  0.00 31.06                                                             
C  8.05  0.00 48.80                                                             
C  8.05  0.00 66.55                                                             
C  8.05  0.00 84.30                                                             
C  0.00  9.30 13.31                                                             
C  0.00  9.30 31.06                                                             
C  0.00  9.30 48.80                                                             
C  0.00  9.30 66.55                                                             
C  0.00  9.30 84.30                                                             
C  4.03  6.97 13.31                                                             
C  4.03  6.97 31.06                                                             
C  4.03  6.97 48.80                                                             
C  4.03  6.97 66.55                                                             
C  4.03  6.97 84.30                                                             
C  8.05  4.65 13.31                                                             
C  8.05  4.65 31.06                                                             
C  8.05  4.65 48.80                                                             
C  8.05  4.65 66.55                                                             
C  8.05  4.65 84.30                                                             
C 12.08  2.32 13.31                                                             
C 12.08  2.32 31.06                                                             
C 12.08  2.32 48.80                                                             
C 12.08  2.32 66.55                                                             
C 12.08  2.32 84.30                                                             
C 16.10  0.00 13.31                                                             
C 16.10  0.00 31.06                                                             
C 16.10  0.00 48.80                                                             
C 16.10  0.00 66.55                                                             
C 16.10  0.00 84.30                                                             
C  0.00 13.95 13.31                                                             
C  0.00 13.95 31.06                                                             
C  0.00 13.95 48.80                                                             
C  0.00 13.95 66.55                                                             
C  0.00 13.95 84.30                                                             
C  4.03 11.62 13.31                                                             
C  4.03 11.62 31.06                                                             
C  4.03 11.62 48.80                                                             
C  4.03 11.62 66.55                                                             
C  4.03 11.62 84.30                                                             
C  8.05  9.30 13.31                                                             
C  8.05  9.30 31.06                                                             
C  8.05  9.30 48.80                                                             
C  8.05  9.30 66.55                                                             
C  8.05  9.30 84.30                                                             
C 12.08  6.97 13.31                                                             
C 12.08  6.97 31.06                                                             
C 12.08  6.97 48.80                                                             
C 12.08  6.97 66.55                                                             
C 12.08  6.97 84.30                                                             
C 16.10  4.65 13.31                                                             
C 16.10  4.65 31.06                                                             
C 16.10  4.65 48.80                                                             
C 16.10  4.65 66.55                                                             
C 16.10  4.65 84.30                                                             
C 20.13  2.32 13.31                                                             
C 20.13  2.32 31.06                                                             
C 20.13  2.32 48.80                                                             
C 20.13  2.32 66.55                                                             
C 20.13  2.32 84.30                                                             
C 24.16  0.00 13.31                                                             
C 24.16  0.00 31.06                                                             
C 24.16  0.00 48.80                                                             
C 24.16  0.00 66.55                                                             
C 24.16  0.00 84.30                                                             
C  4.03 16.27 13.31                                                             
C  4.03 16.27 31.06                                                             
C  4.03 16.27 48.80                                                             
C  4.03 16.27 66.55                                                             
C  4.03 16.27 84.30                                                             
C  8.05 13.95 13.31                                                             
C  8.05 13.95 31.06                                                             
C  8.05 13.95 48.80                                                             
C  8.05 13.95 66.55                                                             
C  8.05 13.95 84.30                                                             
C 12.08 11.62 13.31                                                             
C 12.08 11.62 31.06                                                             
C 12.08 11.62 48.80                                                             
C 12.08 11.62 66.55                                                             
C 12.08 11.62 84.30                                                             
C 16.10  9.30 13.31                                                             
C 16.10  9.30 31.06                                                             
C 16.10  9.30 48.80                                                             
C 16.10  9.30 66.55                                                             
C 16.10  9.30 84.30                                                             
C 20.13  6.97 13.31                                                             
C 20.13  6.97 31.06                                                             
C 20.13  6.97 48.80                                                             
C 20.13  6.97 66.55                                                             
C 20.13  6.97 84.30                                                             
C 24.16  4.65 13.31                                                             
C 24.16  4.65 31.06                                                             
C 24.16  4.65 48.80                                                             
C 24.16  4.65 66.55                                                             
C 24.16  4.65 84.30                                                             
C 28.18  2.32 13.31                                                             
C 28.18  2.32 31.06                                                             
C 28.18  2.32 48.80                                                             
C 28.18  2.32 66.55                                                             
C 28.18  2.32 84.30                                                             
C 12.08 16.27 13.31                                                             
C 12.08 16.27 31.06                                                             
C 12.08 16.27 48.80                                                             
C 12.08 16.27 66.55                                                             
C 12.08 16.27 84.30                                                             
C 16.10 13.95 13.31                                                             
C 16.10 13.95 31.06                                                             
C 16.10 13.95 48.80                                                             
C 16.10 13.95 66.55                                                             
C 16.10 13.95 84.30                                                             
C 20.13 11.62 13.31                                                             
C 20.13 11.62 31.06                                                             
C 20.13 11.62 48.80                                                             
C 20.13 11.62 66.55                                                             
C 20.13 11.62 84.30                                                             
C 24.16  9.30 13.31                                                             
C 24.16  9.30 31.06                                                             
C 24.16  9.30 48.80                                                             
C 24.16  9.30 66.55                                                             
C 24.16  9.30 84.30                                                             
C 28.18  6.97 13.31                                                             
C 28.18  6.97 31.06                                                             
C 28.18  6.97 48.80                                                             
C 28.18  6.97 66.55                                                             
C 28.18  6.97 84.30                                                             
C 20.13 16.27 13.31                                                             
C 20.13 16.27 31.06                                                             
C 20.13 16.27 48.80                                                             
C 20.13 16.27 66.55                                                             
C 20.13 16.27 84.30                                                             
C 24.16 13.95 13.31                                                             
C 24.16 13.95 31.06                                                             
C 24.16 13.95 48.80                                                             
C 24.16 13.95 66.55                                                             
C 24.16 13.95 84.30                                                             
C 28.18 11.62 13.31                                                             
C 28.18 11.62 31.06                                                             
C 28.18 11.62 48.80                                                             
C 28.18 11.62 66.55                                                             
C 28.18 11.62 84.30                                                             
C 28.18 16.27 13.31                                                             
C 28.18 16.27 31.06                                                             
C 28.18 16.27 48.80                                                             
C 28.18 16.27 66.55                                                             
C 28.18 16.27 84.30                                                             
C  1.34  2.32  4.44                                                             
C  1.34  2.32 22.18                                                             
C  1.34  2.32 39.93                                                             
C  1.34  2.32 57.68                                                             
C  1.34  2.32 75.42                                                             
C  5.37  0.00  4.44                                                             
C  5.37  0.00 22.18                                                             
C  5.37  0.00 39.93                                                             
C  5.37  0.00 57.68                                                             
C  5.37  0.00 75.42                                                             
C  1.34  6.97  4.44                                                             
C  1.34  6.97 22.18                                                             
C  1.34  6.97 39.93                                                             
C  1.34  6.97 57.68                                                             
C  1.34  6.97 75.42                                                             
C  5.37  4.65  4.44                                                             
C  5.37  4.65 22.18                                                             
C  5.37  4.65 39.93                                                             
C  5.37  4.65 57.68                                                             
C  5.37  4.65 75.42                                                             
C  9.39  2.32  4.44                                                             
C  9.39  2.32 22.18                                                             
C  9.39  2.32 39.93                                                             
C  9.39  2.32 57.68                                                             
C  9.39  2.32 75.42                                                             
C 13.42  0.00  4.44                                                             
C 13.42  0.00 22.18                                                             
C 13.42  0.00 39.93                                                             
C 13.42  0.00 57.68                                                             
C 13.42  0.00 75.42                                                             
C  1.34 11.62  4.44                                                             
C  1.34 11.62 22.18                                                             
C  1.34 11.62 39.93                                                             
C  1.34 11.62 57.68                                                             
C  1.34 11.62 75.42                                                             
C  5.37  9.30  4.44                                                             
C  5.37  9.30 22.18                                                             
C  5.37  9.30 39.93                                                             
C  5.37  9.30 57.68                                                             
C  5.37  9.30 75.42                                                             
C  9.39  6.97  4.44                                                             
C  9.39  6.97 22.18                                                             
C  9.39  6.97 39.93                                                             
C  9.39  6.97 57.68                                                             
C  9.39  6.97 75.42                                                             
C 13.42  4.65  4.44                                                             
C 13.42  4.65 22.18                                                             
C 13.42  4.65 39.93                                                             
C 13.42  4.65 57.68                                                             
C 13.42  4.65 75.42                                                             
C 17.45  2.32  4.44                                                             
C 17.45  2.32 22.18                                                             
C 17.45  2.32 39.93                                                             
C 17.45  2.32 57.68                                                             
C 17.45  2.32 75.42                                                             
C 21.47  0.00  4.44                                                             
C 21.47  0.00 22.18                                                             
C 21.47  0.00 39.93                                                             
C 21.47  0.00 57.68                                                             
C 21.47  0.00 75.42                                                             
C  1.34 16.27  4.44                                                             
C  1.34 16.27 22.18                                                             
C  1.34 16.27 39.93                                                             
C  1.34 16.27 57.68                                                             
C  1.34 16.27 75.42                                                             
C  5.37 13.95  4.44                                                             
C  5.37 13.95 22.18                                                             
C  5.37 13.95 39.93                                                             
C  5.37 13.95 57.68                                                             
C  5.37 13.95 75.42                                                             
C  9.39 11.62  4.44                                                             
C  9.39 11.62 22.18                                                             
C  9.39 11.62 39.93                                                             
C  9.39 11.62 57.68                                                             
C  9.39 11.62 75.42                                                             
C 13.42  9.30  4.44                                                             
C 13.42  9.30 22.18                                                             
C 13.42  9.30 39.93                                                             
C 13.42  9.30 57.68                                                             
C 13.42  9.30 75.42                                                             
C 17.45  6.97  4.44                                                             
C 17.45  6.97 22.18                                                             
C 17.45  6.97 39.93                                                             
C 17.45  6.97 57.68                                                             
C 17.45  6.97 75.42                                                             
C 21.47  4.65  4.44                                                             
C 21.47  4.65 22.18                                                             
C 21.47  4.65 39.93                                                             
C 21.47  4.65 57.68                                                             
C 21.47  4.65 75.42                                                             
C 25.50  2.32  4.44                                                             
C 25.50  2.32 22.18                                                             
C 25.50  2.32 39.93                                                             
C 25.50  2.32 57.68                                                             
C 25.50  2.32 75.42                                                             
C 29.52  0.00  4.44                                                             
C 29.52  0.00 22.18                                                             
C 29.52  0.00 39.93                                                             
C 29.52  0.00 57.68                                                             
C 29.52  0.00 75.42                                                             
C  9.39 16.27  4.44                                                             
C  9.39 16.27 22.18                                                             
C  9.39 16.27 39.93                                                             
C  9.39 16.27 57.68                                                             
C  9.39 16.27 75.42                                                             
C 13.42 13.95  4.44                                                             
C 13.42 13.95 22.18                                                             
C 13.42 13.95 39.93                                                             
C 13.42 13.95 57.68                                                             
C 13.42 13.95 75.42                                                             
C 17.45 11.62  4.44                                                             
C 17.45 11.62 22.18                                                             
C 17.45 11.62 39.93                                                             
C 17.45 11.62 57.68                                                             
C 17.45 11.62 75.42                                                             
C 21.47  9.30  4.44                                                             
C 21.47  9.30 22.18                                                             
C 21.47  9.30 39.93                                                             
C 21.47  9.30 57.68                                                             
C 21.47  9.30 75.42                                                             
C 25.50  6.97  4.44                                                             
C 25.50  6.97 22.18                                                             
C 25.50  6.97 39.93                                                             
C 25.50  6.97 57.68                                                             
C 25.50  6.97 75.42                                                             
C 29.52  4.65  4.44                                                             
C 29.52  4.65 22.18                                                             
C 29.52  4.65 39.93                                                             
C 29.52  4.65 57.68                                                             
C 29.52  4.65 75.42                                                             
C 17.45 16.27  4.44                                                             
C 17.45 16.27 22.18                                                             
C 17.45 16.27 39.93                                                             
C 17.45 16.27 57.68                                                             
C 17.45 16.27 75.42                                                             
C 21.47 13.95  4.44                                                             
C 21.47 13.95 22.18                                                             
C 21.47 13.95 39.93                                                             
C 21.47 13.95 57.68                                                             
C 21.47 13.95 75.42                                                             
C 25.50 11.62  4.44                                                             
C 25.50 11.62 22.18                                                             
C 25.50 11.62 39.93                                                             
C 25.50 11.62 57.68                                                             
C 25.50 11.62 75.42                                                             
C 29.52  9.30  4.44                                                             
C 29.52  9.30 22.18                                                             
C 29.52  9.30 39.93                                                             
C 29.52  9.30 57.68                                                             
C 29.52  9.30 75.42                                                             
C 25.50 16.27  4.44                                                             
C 25.50 16.27 22.18                                                             
C 25.50 16.27 39.93                                                             
C 25.50 16.27 57.68                                                             
C 25.50 16.27 75.42                                                             
C 29.52 13.95  4.44                                                             
C 29.52 13.95 22.18                                                             
C 29.52 13.95 39.93                                                             
C 29.52 13.95 57.68                                                             
C 29.52 13.95 75.42                                                             
C  2.68  0.00 13.31                                                             
C  2.68  0.00 31.06                                                             
C  2.68  0.00 48.80                                                             
C  2.68  0.00 66.55                                                             
C  2.68  0.00 84.30                                                             
C  2.68  4.65 13.31                                                             
C  2.68  4.65 31.06                                                             
C  2.68  4.65 48.80                                                             
C  2.68  4.65 66.55                                                             
C  2.68  4.65 84.30                                                             
C  6.71  2.32 13.31                                                             
C  6.71  2.32 31.06                                                             
C  6.71  2.32 48.80                                                             
C  6.71  2.32 66.55                                                             
C  6.71  2.32 84.30                                                             
C 10.74  0.00 13.31                                                             
C 10.74  0.00 31.06                                                             
C 10.74  0.00 48.80                                                             
C 10.74  0.00 66.55                                                             
C 10.74  0.00 84.30                                                             
C  2.68  9.30 13.31                                                             
C  2.68  9.30 31.06                                                             
C  2.68  9.30 48.80                                                             
C  2.68  9.30 66.55                                                             
C  2.68  9.30 84.30                                                             
C  6.71  6.97 13.31                                                             
C  6.71  6.97 31.06                                                             
C  6.71  6.97 48.80                                                             
C  6.71  6.97 66.55                                                             
C  6.71  6.97 84.30                                                             
C 10.74  4.65 13.31                                                             
C 10.74  4.65 31.06                                                             
C 10.74  4.65 48.80                                                             
C 10.74  4.65 66.55                                                             
C 10.74  4.65 84.30                                                             
C 14.76  2.32 13.31                                                             
C 14.76  2.32 31.06                                                             
C 14.76  2.32 48.80                                                             
C 14.76  2.32 66.55                                                             
C 14.76  2.32 84.30                                                             
C 18.79  0.00 13.31                                                             
C 18.79  0.00 31.06                                                             
C 18.79  0.00 48.80                                                             
C 18.79  0.00 66.55                                                             
C 18.79  0.00 84.30                                                             
C  2.68 13.95 13.31                                                             
C  2.68 13.95 31.06                                                             
C  2.68 13.95 48.80                                                             
C  2.68 13.95 66.55                                                             
C  2.68 13.95 84.30                                                             
C  6.71 11.62 13.31                                                             
C  6.71 11.62 31.06                                                             
C  6.71 11.62 48.80                                                             
C  6.71 11.62 66.55                                                             
C  6.71 11.62 84.30                                                             
C 10.74  9.30 13.31                                                             
C 10.74  9.30 31.06                                                             
C 10.74  9.30 48.80                                                             
C 10.74  9.30 66.55                                                             
C 10.74  9.30 84.30                                                             
C 14.76  6.97 13.31                                                             
C 14.76  6.97 31.06                                                             
C 14.76  6.97 48.80                                                             
C 14.76  6.97 66.55                                                             
C 14.76  6.97 84.30                                                             
C 18.79  4.65 13.31                                                             
C 18.79  4.65 31.06                                                             
C 18.79  4.65 48.80                                                             
C 18.79  4.65 66.55                                                             
C 18.79  4.65 84.30                                                             
C 22.81  2.32 13.31                                                             
C 22.81  2.32 31.06                                                             
C 22.81  2.32 48.80                                                             
C 22.81  2.32 66.55                                                             
C 22.81  2.32 84.30                                                             
C 26.84  0.00 13.31                                                             
C 26.84  0.00 31.06                                                             
C 26.84  0.00 48.80                                                             
C 26.84  0.00 66.55                                                             
C 26.84  0.00 84.30                                                             
C  6.71 16.27 13.31                                                             
C  6.71 16.27 31.06                                                             
C  6.71 16.27 48.80                                                             
C  6.71 16.27 66.55                                                             
C  6.71 16.27 84.30                                                             
C 10.74 13.95 13.31                                                             
C 10.74 13.95 31.06                                                             
C 10.74 13.95 48.80                                                             
C 10.74 13.95 66.55                                                             
C 10.74 13.95 84.30                                                             
C 14.76 11.62 13.31                                                             
C 14.76 11.62 31.06                                                             
C 14.76 11.62 48.80                                                             
C 14.76 11.62 66.55                                                             
C 14.76 11.62 84.30                                                             
C 18.79  9.30 13.31                                                             
C 18.79  9.30 31.06                                                             
C 18.79  9.30 48.80                                                             
C 18.79  9.30 66.55                                                             
C 18.79  9.30 84.30                                                             
C 22.81  6.97 13.31                                                             
C 22.81  6.97 31.06                                                             
C 22.81  6.97 48.80                                                             
C 22.81  6.97 66.55                                                             
C 22.81  6.97 84.30                                                             
C 26.84  4.65 13.31                                                             
C 26.84  4.65 31.06                                                             
C 26.84  4.65 48.80                                                             
C 26.84  4.65 66.55                                                             
C 26.84  4.65 84.30                                                             
C 30.86  2.32 13.31                                                             
C 30.86  2.32 31.06                                                             
C 30.86  2.32 48.80                                                             
C 30.86  2.32 66.55                                                             
C 30.86  2.32 84.30                                                             
C 14.76 16.27 13.31                                                             
C 14.76 16.27 31.06                                                             
C 14.76 16.27 48.80                                                             
C 14.76 16.27 66.55                                                             
C 14.76 16.27 84.30                                                             
C 18.79 13.95 13.31                                                             
C 18.79 13.95 31.06                                                             
C 18.79 13.95 48.80                                                             
C 18.79 13.95 66.55                                                             
C 18.79 13.95 84.30                                                             
C 22.81 11.62 13.31                                                             
C 22.81 11.62 31.06                                                             
C 22.81 11.62 48.80                                                             
C 22.81 11.62 66.55                                                             
C 22.81 11.62 84.30                                                             
C 26.84  9.30 13.31                                                             
C 26.84  9.30 31.06                                                             
C 26.84  9.30 48.80                                                             
C 26.84  9.30 66.55                                                             
C 26.84  9.30 84.30                                                             
C 30.86  6.97 13.31                                                             
C 30.86  6.97 31.06                                                             
C 30.86  6.97 48.80                                                             
C 30.86  6.97 66.55                                                             
C 30.86  6.97 84.30                                                             
C 22.81 16.27 13.31                                                             
C 22.81 16.27 31.06                                                             
C 22.81 16.27 48.80                                                             
C 22.81 16.27 66.55                                                             
C 22.81 16.27 84.30                                                             
C 26.84 13.95 13.31                                                             
C 26.84 13.95 31.06                                                             
C 26.84 13.95 48.80                                                             
C 26.84 13.95 66.55                                                             
C 26.84 13.95 84.30                                                             
C 30.86 11.62 13.31                                                             
C 30.86 11.62 31.06                                                             
C 30.86 11.62 48.80                                                             
C 30.86 11.62 66.55                                                             
C 30.86 11.62 84.30                                                             
C 30.86 16.27 13.31                                                             
C 30.86 16.27 31.06                                                             
C 30.86 16.27 48.80                                                             
C 30.86 16.27 66.55                                                             
C 30.86 16.27 84.30                                                             
%ENDBLOCK POSITIONS_ABS                                                         

--------------------------------------------------------------------------------
-------------------------------- END INPUT FILE --------------------------------
--------------------------------------------------------------------------------


 
<<<<<<<<<<<<<<<<<<<<<<<<<<<<<<<<< Full system >>>>>>>>>>>>>>>>>>>>>>>>>>>>>>>>>>
<<<<<<<<<<<<<<<<<<<<<<<<<<< PAW Dataset information >>>>>>>>>>>>>>>>>>>>>>>>>>>
File: ~/pp/paw/c_pbe_abinit.paw; rc = 1.25 bohr; shape type =  3; rshape = 1.25 bohr;
  Atomic number:  6;  ionic charge:  4.000000
    Partial Wave 1: l = 0
    Partial Wave 2: l = 0
    Partial Wave 3: l = 1
    Partial Wave 4: l = 1
  Core charge supplied for Nonlinear Core Corrections
<<<<<<<<<<<<<<<<<<<<<<<<<<<<<<<<<<<<<<< >>>>>>>>>>>>>>>>>>>>>>>>>>>>>>>>>>>>>>>

-------------------------- Atom counting information ---------------------------
Symbol    Natoms    Nngwfs    Nprojs
  C        640      2560      5120
.......   ......    ......    ......
Totals:    640      2560      5120
--------------------------------------------------------------------------------

=============================== PSINC grid sizes ===============================
                      Simulation cell:   63 x  35 x 175
                              FFT-box:   63 x  35 x 117
                                  PPD:    7 x   5 x   1
Grid space d1=  0.511269841270a0 (KE cutoff=  29.06054Eh = 790.77748eV)
Grid space d2=  0.531142857143a0 (KE cutoff=  26.92659Eh = 732.70972eV)
Grid space d3=  0.507028571429a0 (KE cutoff=  29.54875Eh = 804.06244eV)
================================================================================
  
WARNING in cell_grid_distribute:
Average of less than one 23-slab per node, so workload cannot be
equally balanced between nodes.

********************* Fourier parallelisation information **********************
       Coarse grid (whole simulation cell) dimensions:     63    35   175
          Real-space ('12') slabs/node (min max mean):      4     5     4
         Recip-space ('23') slabs/node (min max mean):      0     1     0
********************************************************************************

********************* Fourier parallelisation information **********************
       Double grid (whole simulation cell) dimensions:    126    70   350
          Real-space ('12') slabs/node (min max mean):      8     9     8
         Recip-space ('23') slabs/node (min max mean):      1     2     1
********************************************************************************

Atom SCF Calculation for C  : Z (AE atom) =   6 : Z (PS atom) =   4
Config String: 2s2 2p2
Orbitals (num,occ):  2     2.00 2.00
Orbitals   (num,l):  2        0    1
Real-space Grid (nr,dr,rmax): 1293    0.0069659443    9.0000000000
Spherical Bessel Basis (nsws,lmax,cutoff):   37    2  161.4736382572
Confining potential (l,width,scale):  0    3.0000000000  100.0000000000
Confining potential (l,width,scale):  1    3.0000000000  100.0000000000
  1         -5.4966243538   -1.3415066196    4.5135257941   -1.6613421942
  2         -5.4660395227   -1.4172174419    4.4326892861   -1.6365362708
  3         -5.4759582348   -1.4337557188    4.4144498970   -1.6324663609
  4         -5.4843804720   -1.4365219414    4.4114201180   -1.6322033818
  5         -5.4882713954   -1.4381734139    4.4096331461   -1.6320227940
  6         -5.4902132675   -1.4390636620    4.4086785626   -1.6319270645
  7         -5.4912093711   -1.4395303631    4.4081823351   -1.6318789226
  8         -5.4917264140   -1.4397726342    4.4079268833   -1.6318551036
  9         -5.4919964206   -1.4398979410    4.4077958777   -1.6318434025
 10         -5.4921379132   -1.4399626875    4.4077287721   -1.6318376788
 11         -5.4922122245   -1.4399961532    4.4076943935   -1.6318348878
 12         -5.4922513136   -1.4400134684    4.4076767658   -1.6318335308
 13         -5.4922719001   -1.4400224400    4.4076677156   -1.6318328728
 14         -5.4922827535   -1.4400270959    4.4076630621   -1.6318325547
 15         -5.4922884809   -1.4400295164    4.4076606653   -1.6318324014
 16         -5.4922915059   -1.4400307770    4.4076594286   -1.6318323279
 17         -5.4922931051   -1.4400314347    4.4076587894   -1.6318322927
 18         -5.4922939512   -1.4400317785    4.4076584583   -1.6318322760
 19         -5.4922943993   -1.4400319585    4.4076582865   -1.6318322681
 20         -5.4922946368   -1.4400320529    4.4076581972   -1.6318322644
 21         -5.4922947627   -1.4400321025    4.4076581507   -1.6318322627
 22         -5.4922948296   -1.4400321287    4.4076581265   -1.6318322619
Atom SCF converged after  22 iterations to a total energy of     -5.49229483

Determining parallel strategy ...
... using space-filling curve
... NGWF load balancing: max     64;  min     64;  average     64
... Projector load balancing: max    128;  min    128;  average    128
... done
Calculating Ewald energy ...
              Ewald: real-space energy =    9654.819042
        Ewald: reciprocal-space energy =       4.452557
         Ewald: (sum_charge)**2 Energy =   10114.468781
         Ewald: (sum_charge**2) Energy =     799.618967
                          Ewald Energy =   -1254.816148
Basis initialisation ...... NGWF spheres initialised
... Projector spheres initialised
... NGWF tight boxes initialised
... Projector tight boxes initialised
... Tight-boxes gathered
... NGWF basis size (local,global):     692500  27889536
... PAW projector initialisation
... done

============================= Charge Augmentation ==============================
                           Aug box size:   11 x  11 x  11
================================================================================

========================== Sparse matrix information ===========================
                        Overlap matrix filling:  29.06%
                        Density kernel filling: 100.00%
              NGWF-Proj overlap matrix filling:   7.97%
                    Aug Overlap matrix filling:  35.62%
                    Hamiltonian matrix filling:  35.62%
                  NGWF diagonal matrix filling:   0.16%
                             KS matrix filling: 100.00% 
                           KSKS matrix filling: 100.00% 
================================================================================

Sparse matrix initialisation ... done
NGWF initialisation ...... done
============ Calculation of NGWF S^-1 using Hotelling algorithm ================ 
         Iteration  |  Frobenius norm and Maximum abs value    (of I-S*S_n^-1)   
               1       0.48748416E+02     0.97165863E+00
               2       0.47329891E+02     0.94537832E+00
               3       0.45287414E+02     0.89816007E+00
               4       0.42734928E+02     0.82054508E+00
               5       0.39725815E+02     0.71661663E+00
               6       0.36322121E+02     0.66398113E+00
               7       0.32896446E+02     0.61870322E+00
               8       0.29580917E+02     0.57901572E+00
               9       0.25812899E+02     0.52939012E+00
              10       0.20919786E+02     0.44881078E+00
              11       0.14660235E+02     0.32613915E+00
              12       0.79082350E+01     0.17784523E+00
              13       0.26804130E+01     0.57578595E-01
              14       0.37159326E+00     0.71288784E-02
              15       0.87488670E-02     0.13786304E-03
              16       0.67943706E-05     0.71943950E-07
              17       0.62484726E-11     0.41078252E-13
================================================================================
Calculating core density ...
================================= Core Density =================================
               Core den box size:   21 x  21 x  21
================================================================================
 ... done
Up spin density kernel initialisation ...... done

Writing density kernel to file "4.69556_GO_manual_4x64graphite.dkn" ... done

>>> Optimising kernel for current NGWFs:

--------------------------- Ensemble-DFT optimisation --------------------------
Running ScaLAPACK on   40 processor(s).

--------------------------------------------------------------------------------
  Iter                              Commutator    Free_energy(A=E-TS)     DeltaA
#    0                          0.000042969774   -3651.81387862237989  -3.65E+03

Step                       =       0.381966011250
Energy                     =   -3651.813853668652
Entropy (-TS)              =      -0.000024953605
Free energy (A=E-TS)       =   -3651.813878622380
Est. 0K Energy 0.5*(E+A)   =   -3651.813866145516
Residual Non-orthogonality =       0.000000000000
Residual N_electrons       =      -0.000000000124

Spin          Integrated_Ne            Fermi_level     Delta_Fermi_level
   1      2560.000000001751         0.070759786878              7.08E-02

                           Spin 1          
     Orb      H-eigenvalues     Occupancies
       1 |    -0.6507896456    1.0000000000 | 
                          ------
    1276 |     0.0339593151    0.9999910215 | 
    1277 |     0.0339603785    0.9999910185 | 
    1278 |     0.0340167681    0.9999908571 | 
    1279 |     0.0340180360    0.9999908535 | 
    1280 |     0.0340474111    0.9999907682 | 
                 - Gap at zero temperature -
    1281 |     0.1076884680    0.0000086223 | 
    1282 |     0.1076892771    0.0000086200 | 
    1283 |     0.1076899494    0.0000086182 | 
    1284 |     0.1076913472    0.0000086144 | 
    1285 |     0.1076918225    0.0000086131 | 
                          ------
    2560 |     0.9043904492    0.0000000000 | 

                       |  Abs_value |  Threshold | Converged
     Delta_Free_energy |   3.65E+03 |   1.00E-06 |        No
     Delta_Energy      |   3.65E+03 |   1.00E-04 |        No
     Delta_Entropy     |   2.50E-05 |   1.00E-04 |       Yes
     Commutator        |   4.30E-05 |   1.00E-05 |        No
     Delta_Fermi_level |   7.08E-02 |   1.00E-03 |        No

  Line search of the free energy minimum:
  Step_type        Step             Free_energy   Predicted_free_energy
.   Initial    0.000000    -3651.81387862237989
.    Trial1    0.381966    -3651.81594649026738
.    Trial2    0.618034    -3651.81655236471488
. Quadratic    0.778552    -3651.81667238030286    -3651.81667106648183

--------------------------------------------------------------------------------
  Iter                              Commutator    Free_energy(A=E-TS)     DeltaA
#    1                          0.000019479833   -3651.81667238030286  -2.79E-03

Step                       =       0.778552094172
Energy                     =   -3651.816646970034
Entropy (-TS)              =      -0.000025410401
Free energy (A=E-TS)       =   -3651.816672380303
Est. 0K Energy 0.5*(E+A)   =   -3651.816659675168
Residual Non-orthogonality =       0.000000000000
Residual N_electrons       =       0.000000000132

Spin          Integrated_Ne            Fermi_level     Delta_Fermi_level
   1      2559.999999997900         0.063096634824             -7.66E-03

                           Spin 1          
     Orb      H-eigenvalues     Occupancies
       1 |    -0.6617501215    1.0000000000 | 
                          ------
    1276 |     0.0262669204    0.9999911040 | 
    1277 |     0.0262682909    0.9999911002 | 
    1278 |     0.0262827126    0.9999910596 | 
    1279 |     0.0262845470    0.9999910544 | 
    1280 |     0.0262931750    0.9999910300 | 
                 - Gap at zero temperature -
    1281 |     0.0998745839    0.0000090426 | 
    1282 |     0.0998751552    0.0000090409 | 
    1283 |     0.0998773057    0.0000090348 | 
    1284 |     0.0998787094    0.0000090308 | 
    1285 |     0.0998788940    0.0000090303 | 
                          ------
    2560 |     0.8928304989    0.0000000000 | 

                       |  Abs_value |  Threshold | Converged
     Delta_Free_energy |   2.79E-03 |   1.00E-06 |        No
     Delta_Energy      |   2.79E-03 |   1.00E-04 |        No
     Delta_Entropy     |   4.57E-07 |   1.00E-04 |       Yes
     Commutator        |   1.95E-05 |   1.00E-05 |        No
     Delta_Fermi_level |   7.66E-03 |   1.00E-03 |        No

  Line search of the free energy minimum:
  Step_type        Step             Free_energy   Predicted_free_energy
.   Initial    0.000000    -3651.81667238030286
.    Trial1    0.778552    -3651.81554597082004
.    Trial2    0.297380    -3651.81706009996878
. Quadratic    0.262728    -3651.81706698027619    -3651.81706696401670

--------------------------------------------------------------------------------
  Iter                              Commutator    Free_energy(A=E-TS)     DeltaA
#    2                          0.000007822127   -3651.81706698027619  -3.95E-04

Step                       =       0.262728483650
Energy                     =   -3651.817041548590
Entropy (-TS)              =      -0.000025431562
Free energy (A=E-TS)       =   -3651.817066980276
Est. 0K Energy 0.5*(E+A)   =   -3651.817054264433
Residual Non-orthogonality =       0.000000000000
Residual N_electrons       =      -0.000000000124

Spin          Integrated_Ne            Fermi_level     Delta_Fermi_level
   1      2560.000000001989         0.062541566247             -5.55E-04

                           Spin 1          
     Orb      H-eigenvalues     Occupancies
       1 |    -0.6625575391    1.0000000000 | 
                          ------
    1276 |     0.0257517154    0.9999909914 | 
    1277 |     0.0257529298    0.9999909879 | 
    1278 |     0.0257653692    0.9999909524 | 
    1279 |     0.0257671947    0.9999909472 | 
    1280 |     0.0257746634    0.9999909258 | 
                 - Gap at zero temperature -
    1281 |     0.0993530533    0.0000089473 | 
    1282 |     0.0993535443    0.0000089459 | 
    1283 |     0.0993557926    0.0000089396 | 
    1284 |     0.0993568270    0.0000089367 | 
    1285 |     0.0993572195    0.0000089355 | 
                          ------
    2560 |     0.8919806824    0.0000000000 | 

                       |  Abs_value |  Threshold | Converged
     Delta_Free_energy |   3.95E-04 |   1.00E-06 |        No
     Delta_Energy      |   3.95E-04 |   1.00E-04 |        No
     Delta_Entropy     |   2.12E-08 |   1.00E-04 |       Yes
     Commutator        |   7.82E-06 |   1.00E-05 |       Yes
     Delta_Fermi_level |   5.55E-04 |   1.00E-03 |       Yes

  Line search of the free energy minimum:
  Step_type        Step             Free_energy   Predicted_free_energy
.   Initial    0.000000    -3651.81706698027619
.    Trial1    0.262728    -3651.81712206149314
.    Trial2    0.544341    -3651.81712891505413
. Quadratic    0.439278    -3651.81713267116311    -3651.81713267286432

--------------------------------------------------------------------------------
  Iter                              Commutator    Free_energy(A=E-TS)     DeltaA
#    3                          0.000004716126   -3651.81713267116311  -6.57E-05

Step                       =       0.439278332412
Energy                     =   -3651.817107218384
Entropy (-TS)              =      -0.000025452864
Free energy (A=E-TS)       =   -3651.817132671163
Est. 0K Energy 0.5*(E+A)   =   -3651.817119944773
Residual Non-orthogonality =       0.000000000000
Residual N_electrons       =       0.000000000084

Spin          Integrated_Ne            Fermi_level     Delta_Fermi_level
   1      2559.999999998641         0.061855269324             -6.86E-04

                           Spin 1          
     Orb      H-eigenvalues     Occupancies
       1 |    -0.6635426335    1.0000000000 | 
                          ------
    1276 |     0.0250838058    0.9999909389 | 
    1277 |     0.0250848681    0.9999909359 | 
    1278 |     0.0250949902    0.9999909068 | 
    1279 |     0.0250968106    0.9999909016 | 
    1280 |     0.0251029186    0.9999908840 | 
                 - Gap at zero temperature -
    1281 |     0.0986795032    0.0000089114 | 
    1282 |     0.0986799191    0.0000089102 | 
    1283 |     0.0986822798    0.0000089036 | 
    1284 |     0.0986829317    0.0000089017 | 
    1285 |     0.0986835829    0.0000088999 | 
                          ------
    2560 |     0.8909565377    0.0000000000 | 

                       |  Abs_value |  Threshold | Converged
     Delta_Free_energy |   6.57E-05 |   1.00E-06 |        No
     Delta_Energy      |   6.57E-05 |   1.00E-04 |       Yes
     Delta_Entropy     |   2.13E-08 |   1.00E-04 |       Yes
     Commutator        |   4.72E-06 |   1.00E-05 |       Yes
     Delta_Fermi_level |   6.86E-04 |   1.00E-03 |       Yes

  Line search of the free energy minimum:
  Step_type        Step             Free_energy   Predicted_free_energy
.   Initial    0.000000    -3651.81713267116311
.    Trial1    0.439278    -3651.81715056029088
.    Trial2    0.653455    -3651.81712695935767
. Quadratic    0.307804    -3651.81715455338008    -3651.81715455244330

--------------------------------------------------------------------------------
  Iter                              Commutator    Free_energy(A=E-TS)     DeltaA
#    4                          0.000002857746   -3651.81715455338008  -2.19E-05

Step                       =       0.307803897491
Energy                     =   -3651.817129093880
Entropy (-TS)              =      -0.000025459385
[...]
 C   160 -- C   385       -0.10      5.37000
 C   159 -- C   384       -0.10      5.37000
 C   158 -- C   383       -0.10      5.37000
 C   157 -- C   382       -0.10      5.37000
 C   156 -- C   381       -0.10      5.37000
 C   155 -- C   355       -0.10      5.37000
 C   154 -- C   354       -0.10      5.37000
 C   153 -- C   353       -0.10      5.37000
 C   152 -- C   352       -0.10      5.37000
 C   151 -- C   351       -0.10      5.37000
 C   140 -- C   335       -0.10      5.37000
 C   139 -- C   334       -0.10      5.37000
 C   138 -- C   333       -0.10      5.37000
 C   137 -- C   332       -0.10      5.37000
 C   136 -- C   331       -0.10      5.37000
 C   115 -- C   325       -0.10      5.37000
 C   114 -- C   324       -0.10      5.37000
 C   113 -- C   323       -0.10      5.37000
 C   112 -- C   322       -0.10      5.37000
 C   111 -- C   321       -0.10      5.37000
 C   219 -- C   569       -0.10      5.37202
 C   218 -- C   568       -0.10      5.37202
 C   217 -- C   567       -0.10      5.37202
 C   216 -- C   566       -0.10      5.37202
 C   250 -- C   540       -0.10      5.37202
 C   249 -- C   539       -0.10      5.37202
 C   248 -- C   538       -0.10      5.37202
 C   247 -- C   537       -0.10      5.37202
 C   246 -- C   536       -0.10      5.37202
 C   220 -- C   570       -0.10      5.37202
 C   285 -- C   580       -0.10      5.37202
 C   284 -- C   579       -0.10      5.37202
 C   283 -- C   578       -0.10      5.37202
 C   282 -- C   577       -0.10      5.37202
 C   281 -- C   576       -0.10      5.37202
 C   260 -- C   605       -0.10      5.37202
 C   259 -- C   604       -0.10      5.37202
 C   258 -- C   603       -0.10      5.37202
 C   257 -- C   602       -0.10      5.37202
 C   256 -- C   601       -0.10      5.37202
 C   220 -- C   515       -0.10      5.37202
 C   219 -- C   514       -0.10      5.37202
 C   218 -- C   513       -0.10      5.37202
 C   217 -- C   512       -0.10      5.37202
 C   216 -- C   511       -0.10      5.37202
 C   195 -- C   540       -0.10      5.37202
 C   195 -- C   500       -0.10      5.37202
 C   194 -- C   539       -0.10      5.37202
 C   194 -- C   499       -0.10      5.37202
 C   193 -- C   538       -0.10      5.37202
 C   193 -- C   498       -0.10      5.37202
 C   192 -- C   537       -0.10      5.37202
 C   192 -- C   497       -0.10      5.37202
 C   191 -- C   536       -0.10      5.37202
 C   191 -- C   496       -0.10      5.37202
 C   180 -- C   515       -0.10      5.37202
 C   179 -- C   514       -0.10      5.37202
 C   178 -- C   513       -0.10      5.37202
 C   177 -- C   512       -0.10      5.37202
 C   176 -- C   511       -0.10      5.37202
 C    11 -- C   331       -0.10      5.37202
 C   205 -- C   550       -0.10      5.37202
 C   204 -- C   549       -0.10      5.37202
 C   203 -- C   548       -0.10      5.37202
 C   202 -- C   547       -0.10      5.37202
 C   201 -- C   546       -0.10      5.37202
 C    95 -- C   425       -0.10      5.37202
 C    95 -- C   365       -0.10      5.37202
 C    94 -- C   424       -0.10      5.37202
 C    94 -- C   364       -0.10      5.37202
 C    93 -- C   423       -0.10      5.37202
 C    93 -- C   363       -0.10      5.37202
 C    92 -- C   422       -0.10      5.37202
 C    92 -- C   362       -0.10      5.37202
 C    91 -- C   421       -0.10      5.37202
 C    91 -- C   361       -0.10      5.37202
 C    40 -- C   365       -0.10      5.37202
 C    39 -- C   364       -0.10      5.37202
 C    38 -- C   363       -0.10      5.37202
 C    37 -- C   362       -0.10      5.37202
 C    36 -- C   361       -0.10      5.37202
 C    15 -- C   335       -0.10      5.37202
 C    65 -- C   395       -0.10      5.37202
 C    65 -- C   345       -0.10      5.37202
 C    64 -- C   394       -0.10      5.37202
 C    64 -- C   344       -0.10      5.37202
 C    63 -- C   393       -0.10      5.37202
 C    30 -- C   355       -0.10      5.37202
 C    63 -- C   343       -0.10      5.37202
 C    62 -- C   392       -0.10      5.37202
 C    30 -- C   325       -0.10      5.37202
 C    14 -- C   334       -0.10      5.37202
 C    62 -- C   342       -0.10      5.37202
 C    61 -- C   391       -0.10      5.37202
 C    29 -- C   354       -0.10      5.37202
 C    61 -- C   341       -0.10      5.37202
 C    29 -- C   324       -0.10      5.37202
 C   260 -- C   550       -0.10      5.37202
 C   259 -- C   549       -0.10      5.37202
 C    28 -- C   353       -0.10      5.37202
 C   258 -- C   548       -0.10      5.37202
 C   257 -- C   547       -0.10      5.37202
 C   256 -- C   546       -0.10      5.37202
 C    28 -- C   323       -0.10      5.37202
 C    27 -- C   352       -0.10      5.37202
 C    13 -- C   333       -0.10      5.37202
 C    27 -- C   322       -0.10      5.37202
 C   120 -- C   395       -0.10      5.37202
 C    26 -- C   351       -0.10      5.37202
 C   119 -- C   394       -0.10      5.37202
 C   118 -- C   393       -0.10      5.37202
 C    55 -- C   335       -0.10      5.37202
 C   117 -- C   392       -0.10      5.37202
 C    26 -- C   321       -0.10      5.37202
 C   116 -- C   391       -0.10      5.37202
 C    54 -- C   334       -0.10      5.37202
 C    12 -- C   332       -0.10      5.37202
 C    53 -- C   333       -0.10      5.37202
 C   230 -- C   580       -0.10      5.37202
 C   230 -- C   525       -0.10      5.37202
 C   229 -- C   579       -0.10      5.37202
 C   229 -- C   524       -0.10      5.37202
 C   228 -- C   578       -0.10      5.37202
 C    52 -- C   332       -0.10      5.37202
 C   228 -- C   523       -0.10      5.37202
 C   227 -- C   577       -0.10      5.37202
 C   227 -- C   522       -0.10      5.37202
 C   226 -- C   576       -0.10      5.37202
 C   226 -- C   521       -0.10      5.37202
 C    51 -- C   331       -0.10      5.37202
 C    23 -- C   478       -0.10      5.37202
 C    49 -- C   469       -0.10      5.37202
 C    48 -- C   468       -0.10      5.37202
 C    47 -- C   467       -0.10      5.37202
 C    22 -- C   477       -0.10      5.37202
 C    46 -- C   466       -0.10      5.37202
 C    21 -- C   476       -0.10      5.37202
 C    85 -- C   355       -0.10      5.37202
 C    84 -- C   354       -0.10      5.37202
 C    83 -- C   353       -0.10      5.37202
 C    82 -- C   352       -0.10      5.37202
 C    81 -- C   351       -0.10      5.37202
 C    55 -- C   385       -0.10      5.37202
 C    54 -- C   384       -0.10      5.37202
 C    25 -- C   480       -0.10      5.37202
 C    53 -- C   383       -0.10      5.37202
 C    52 -- C   382       -0.10      5.37202
 C    51 -- C   381       -0.10      5.37202
 C    24 -- C   479       -0.10      5.37202
 C    50 -- C   470       -0.10      5.37202
 C    24 -- C   449       -0.10      5.37202
 C     6 -- C   416       -0.10      5.37202
 C    23 -- C   448       -0.10      5.37202
 C    22 -- C   447       -0.10      5.37202
 C    10 -- C   470       -0.10      5.37202
 C     5 -- C   450       -0.10      5.37202
 C    21 -- C   446       -0.10      5.37202
 C    10 -- C   420       -0.10      5.37202
 C     9 -- C   469       -0.10      5.37202
 C     9 -- C   419       -0.10      5.37202
 C     8 -- C   468       -0.10      5.37202
 C     4 -- C   449       -0.10      5.37202
 C   150 -- C   440       -0.10      5.37202
 C   149 -- C   439       -0.10      5.37202
 C   148 -- C   438       -0.10      5.37202
 C   147 -- C   437       -0.10      5.37202
 C     8 -- C   418       -0.10      5.37202
 C   146 -- C   436       -0.10      5.37202
 C     2 -- C   447       -0.10      5.37202
 C   135 -- C   460       -0.10      5.37202
 C     7 -- C   467       -0.10      5.37202
 C   134 -- C   459       -0.10      5.37202
 C   133 -- C   458       -0.10      5.37202
 C   132 -- C   457       -0.10      5.37202
 C   131 -- C   456       -0.10      5.37202
 C     7 -- C   417       -0.10      5.37202
 C     1 -- C   446       -0.10      5.37202
 C     6 -- C   466       -0.10      5.37202
 C    25 -- C   450       -0.10      5.37202
 C     3 -- C   448       -0.10      5.37202
 C   106 -- C   436       -0.10      5.37202
 C   106 -- C   376       -0.10      5.37202
 C    80 -- C   410       -0.10      5.37202
 C    79 -- C   409       -0.10      5.37202
 C    78 -- C   408       -0.10      5.37202
 C    77 -- C   407       -0.10      5.37202
 C    76 -- C   406       -0.10      5.37202
 C   135 -- C   410       -0.10      5.37202
 C   134 -- C   409       -0.10      5.37202
 C   133 -- C   408       -0.10      5.37202
 C   132 -- C   407       -0.10      5.37202
 C   131 -- C   406       -0.10      5.37202
 C   110 -- C   440       -0.10      5.37202
 C   110 -- C   380       -0.10      5.37202
 C   109 -- C   439       -0.10      5.37202
 C   109 -- C   379       -0.10      5.37202
 C   108 -- C   438       -0.10      5.37202
 C   108 -- C   378       -0.10      5.37202
 C   107 -- C   437       -0.10      5.37202
 C   107 -- C   377       -0.10      5.37202
 C   215 -- C   635       -0.10      5.38000
 C   214 -- C   634       -0.10      5.38000
 C   213 -- C   633       -0.10      5.38000
 C   212 -- C   632       -0.10      5.38000
 C   211 -- C   631       -0.10      5.38000
 C   190 -- C   620       -0.10      5.38000
 C   189 -- C   619       -0.10      5.38000
 C   188 -- C   618       -0.10      5.38000
 C   187 -- C   617       -0.10      5.38000
 C   186 -- C   616       -0.10      5.38000
 C   175 -- C   595       -0.10      5.38000
 C   174 -- C   594       -0.10      5.38000
 C   173 -- C   593       -0.10      5.38000
 C   172 -- C   592       -0.10      5.38000
 C   171 -- C   591       -0.10      5.38000
 C   245 -- C   640       -0.10      5.38000
 C   244 -- C   639       -0.10      5.38000
 C   243 -- C   638       -0.10      5.38000
 C   242 -- C   637       -0.10      5.38000
 C   241 -- C   636       -0.10      5.38000
==================================================


=================== Orbital energy and occupancy information ===================

      Total number of orbitals:    2560
        Occupancy sum (kernel):    1280.000000000
   Occupancy sum (eigenvalues):    1280.000000000
                 HOMO-LUMO gap:       0.071447123 Eh
                 Mid-gap level:       0.139877157 Eh

                        Orbital | Energy (Eh) | Occupancy
                            1    -0.579078998   1.0000000
                        .......   ...........   .........
                         1271     0.102845852   0.9999903
                         1272     0.102850007   0.9999902
                         1273     0.103314211   0.9999887
                         1274     0.103318381   0.9999887
                         1275     0.103450200   0.9999882
                         1276     0.103452754   0.9999882
                         1277     0.103683647   0.9999873
                         1278     0.103919766   0.9999863
                         1279     0.103922309   0.9999863
                         1280     0.104153595   0.9999853
                        ....... -- gap at 0K -- .........
                         1281     0.175600718   0.0000107
                         1282     0.175603166   0.0000107
                         1283     0.175634777   0.0000106
                         1284     0.175636856   0.0000106
                         1285     0.175656967   0.0000105
                         1286     0.175852678   0.0000099
                         1287     0.175855146   0.0000099
                         1288     0.175886088   0.0000098
                         1289     0.175888135   0.0000098
                         1290     0.175907864   0.0000097
                        .......   ...........   .........
                         2560     1.035396796   0.0000000

================================================================================

===================== Writing canonical molecular orbitals =====================
| Orbital  Energy (eV)  Norm     |
| HOMO      2.83416353  1.000000 | Writing "4.69556_GO_manual_4x64graphite_HOMO.cube" ... done
Writing "4.69556_GO_manual_4x64graphite_HOMO.dx" ... done
| LUMO      4.77833868  1.000000 | Writing "4.69556_GO_manual_4x64graphite_LUMO.cube" ... done
Writing "4.69556_GO_manual_4x64graphite_LUMO.dx" ... done
================================================================================
 
===================== Density of States (DOS) calculation ======================
Writing "4.69556_GO_manual_4x64graphite_DOS.txt" ...  done
================================================================================
 
Writing bands to file "4.69556_GO_manual_4x64graphite.val_bands" ... done
 
================ Projected Density of States (pDOS) calculation ================
 
Constructing AM resolved functions  ...... done
Writing NGWF plot files in formats: CUBE DX ...  done
 
Performing overlap integrals ...  done
 
Computing pDOS weights ...  done
 
All bands spilling parameter =   2.68 %
Occupancy-weighted spilling parameter =   1.02 %
 
 => Outputting data for OptaDOS <=
 
Writing pDOS weights to file "4.69556_GO_manual_4x64graphite.val_pdos_bin" ... done
 
Writing band gradients to file "4.69556_GO_manual_4x64graphite.val_dome_bin" ... done
 
Writing Castep output cell file to "4.69556_GO_manual_4x64graphite-out.cell" ... done
 
 => Computing Gaussian smeared pDOS <= 
Writing "4.69556_GO_manual_4x64graphite_PDOS.txt" ...  done
 
 => Computing Occupancy-weighted Gaussian smeared pDOS <= 
Writing "4.69556_GO_manual_4x64graphite_occ_PDOS.txt" ...  done
  => Band centres: 
 S band centre of group 1:  -13.728685 eV
 P band centre of group 1:   -6.572609 eV
  Band centres done. <=
  => Integrated number of electrons in each AM band: 
 S num electrons of group 1:  577.050828
 P num electrons of group 1: 1956.889240
  Integrated number of electrons done. <=
================================================================================

------------------------------ TIMING INFORMATION ------------------------------
AVERAGE TIME:    2487.828s on     40 node(s)                                    
TOTAL TIME:      2487.829s on     40 node(s)                                    
================= AVERAGE TIMINGS FROM ALL NODES (CUMULATIVE) ==================
|| TAG                                    #calls    cpu time   %total  Gflops ||
|| work_imbalance                       :     1        0.00s   0.000%  ------ ||
|| paw_tcore_hartree_on_grid            :     1        0.01s   0.000%  ------ ||
|| paw_tcore_density                    :     1        0.01s   0.000%  ------ ||
|| paw_sphere_density_on_grid           :     1        0.01s   0.001%  ------ ||
|| sparse_set_to_garbage                :   135        0.02s   0.001%  ------ ||
|| paw_dij_hartree                      :   267        0.03s   0.001%  ------ ||
|| basis_extract_function_from_box      :  1536        0.07s   0.003%  ------ ||
|| pseudo_make_structure_factor         :     1        0.07s   0.003%  ------ ||
|| paw_species_calc_proj_prec_mat       :     1        0.12s   0.005%  ------ ||
|| density_init_guess_real              :     1        0.18s   0.007%  ------ ||
|| paw_dataset_init                     :     1        0.23s   0.009%  ------ ||
|| restart_kernel_write                 :    13        0.63s   0.025%  ------ ||
|| ngwfs_initialise_from_radial         :     2        0.66s   0.027%  ------ ||
|| sparse_init                          :     1        0.88s   0.035%  ------ ||
|| dense_normal_eigensolve              :     1        1.06s   0.042%  ------ ||
|| hartree_on_grid                      :   201        1.44s   0.058%  ------ ||
|| projectors_init_fftbox_recip         :   121        2.37s   0.095%  ------ ||
|| fourier_apply_box_pair               :  2272        3.78s   0.152% 557.803 ||
|| basis_copy_function_to_box           : 19200        4.14s   0.166%  ------ ||
|| augmentation_screen_dij              :   206        4.41s   0.177%  ------ ||
|| ewald_calculate_energy               :     1        5.43s   0.218%  ------ ||
|| sparse_embed_hotelling_invert_embed  :    23        6.73s   0.270%  ------ ||
|| sw_init                              :     1        6.73s   0.271%  ------ ||
|| ngwf_gradient_coeffs                 :    12        8.23s   0.331%  ------ ||
|| sparse_trace                         :  2412        9.13s   0.367%  ------ ||
|| cell_grid_extract_box_real           :  8108       14.38s   0.578%  ------ ||
|| fourier_apply_cell_backward          :  6202       15.04s   0.604%  69.353 ||
|| fourier_apply_cell_forward           :  5801       15.11s   0.607%  64.560 ||
|| cell_grid_deposit_box_real           : 25904       16.46s   0.662%  ------ ||
|| paw_dij_xc                           :   267       17.84s   0.717%  ------ ||
|| aug_nonlocal_mat                     :   255       23.21s   0.933%  ------ ||
|| density_fftbox_deposit_to_cell       : 12864       33.25s   1.336%  ------ ||
|| augmentation_density_on_grid         :   201       34.58s   1.390%  ------ ||
|| projectors_func_ovlp_box             :    24       37.31s   1.500%  ------ ||
|| function_ops_brappd_ketppd           :    48       38.01s   1.528%  ------ ||
|| hamiltonian_energy_components        :     3       38.22s   1.536%  ------ ||
|| eigenstates_pdos                     :     1       45.69s   1.837%  ------ ||
|| eigenstates_calculate                :     1       49.92s   2.006%  ------ ||
|| integrals_kinetic                    :    23       55.38s   2.226%  ------ ||
|| nlxc_vdw_energy                      :   400       64.64s   2.598%  ------ ||
|| xc_energy_potential                  :   200       68.07s   2.736%  ------ ||
|| dense_eigensolve                     :   174       82.99s   3.336%  ------ ||
|| properties_calculate                 :     1       93.27s   3.749%  ------ ||
|| sparse_product                       :  2467       95.72s   3.847%  ------ ||
|| potential_apply_to_ngwf_batch        :   252       98.42s   3.956%  ------ ||
|| basis_dot_function_with_box          : 4.175M     114.51s   4.603%  ------ ||
|| restart_ngwfs_tightbox_output        :    11      133.28s   5.357%  ------ ||
|| projectors_gradient_batch            :    48      148.48s   5.968%  ------ ||
|| integrals_locpot_mat_els_batch       :   252      151.14s   6.075%  ------ ||
|| fourier_apply_box                    : 60688      188.19s   7.564% 976.871 ||
|| edft_diag_ngwf_ham                   :   173      189.32s   7.610%  ------ ||
|| projectors_grad_precond_batch        :    48      201.23s   8.088%  ------ ||
|| density_fftbox_interpolate_multiply  : 12864      249.83s  10.042%  ------ ||
|| integrals_locpot_dbl_grid            :    63      250.42s  10.066%  ------ ||
|| density_batch_interp_deposit         :   804      314.12s  12.626%  ------ ||
|| basis_add_function_to_box            : 11.86M     314.40s  12.638%  ------ ||
|| edft_apply_smearing_operator         :   173      370.87s  14.907%  ------ ||
|| ngwf_gradient_build_batch            :    48      386.24s  15.525%  ------ ||
|| density_batch_row_sums               :   804      435.54s  17.507%  ------ ||
|| ngwf_gradient_batch                  :    48      514.50s  20.681%  ------ ||
|| ngwf_gradient_lnv                    :    12      535.74s  21.535%  ------ ||
|| density_on_dbl_grid                  :   201      760.58s  30.572%  ------ ||
|| hamiltonian_lhxc_calculate           :   196      844.76s  33.956%  ------ ||
|| edft_calculate                       :    12     1456.29s  58.537%  ------ ||
|| ngwf_cg_optimise                     :     1     2369.24s  95.233%  ------ ||
|| total_time                           :     1     2487.83s 100.000%  ------ ||
================================================================================
Overhead of generating timer report: 
- 0 ms averaging over threads,
- 5 ms ensuring consistency across MPI ranks,
- 0 ms printing in order.

Job completed: 06-03-2020 01:32 (-0000)

