 +---------------------------------------------------------------+
 |                                                               |
 |        ####### #     # ####### ####### ####### ######         |
 |        #     # ##    # #          #    #       #     #        |
 |        #     # # #   # #          #    #       #     #        |
 |        #     # #  #  # #####      #    #####   ######         |
 |        #     # #   # # #          #    #       #              |
 |        #     # #    ## #          #    #       #              |
 |        ####### #     # #######    #    ####### #              |
 |                                                               |
 |        Linear-Scaling Ab Initio Total Energy Program          |
 |                                                               |
 |          Release for academic collaborators of ODG            |
 |                                             Version 5.3.2.12  |
 |                                                               |
 +---------------------------------------------------------------+
 |                                                               |
 |  Authors:                                                     |
 |  Jacek Dziedzic, Peter D. Haynes, Nicholas D. M. Hine,        |
 |  Arash. A. Mostofi, Mike C. Payne and Chris-Kriton Skylaris   |
 |                                                               |
 |  Contributors:                                                |
 |  J. Aarons, L. Andrinopoulos, P. W. Avraam, R. A. Bell,       |
 |  A. Bhandari, G. A. Bramley, R. J. Charlton, S. J. Clark,     |
 |  R. J. Clements, G. C. Constantinescu, F. Corsetti,           |
 |  N. Corsini, O. Dieguez, S. M. M. Dubois, K. K. B. Duff,      |
 |  J. M. Escartin, A. Greco, H. Helal, Q. O. Hill, L. P. Lee,   |
 |  J.-H. Li, E. B. Linscott, G. Moynihan, D. D. O`Regan,        |
 |  O. K. Okan, M. J. S. Phipps, C. J. Pickard,                  |
 |  J. C. A. Prentice, M. I. J. Probert, L. E. Ratcliff,         |
 |  M. Robinson, A. Ruiz Serrano, J. S. Spencer, E. W. Tait,     |
 |  G. Teobaldi, D. Turban, V. Vitale, K. A. Wilkinson,          |
 |  C. Weber, J. C. Womack, N. Yeung and T. J. Zuehlsdorff       |
 |                                                               |
 |                                   Copyright (c) 2004-2020     |
 |                                                               |
 |  Please cite:                                                 |
 |  "Introducing ONETEP: Linear-scaling density functional       |
 |   simulations on parallel computers".                         |
 |   C.-K. Skylaris, P. D. Haynes, A. A. Mostofi, M. C. Payne.   |
 |   J. Chem. Phys. 122 084119 (2005).                           |
 |                                                               |
 |          in all publications arising from your use of ONETEP. |
 |                                                               |
 +---------------------------------------------------------------+
 |                                                               |
 |   ONETEP is based on developments described in the following  |
 |   publications:                                               |
 |                                                               |
 |  "Nonorthogonal generalized Wannier function pseudopotential  |
 |   plane-wave method".                                         |
 |   C.-K. Skylaris, A. A. Mostofi, P. D. Haynes, O. Dieguez,    |
 |   M. C. Payne.                                                |
 |   Phys. Rev. B 66 035119 (2002).                              |
 |                                                               |
 |  "Preconditioned iterative minimization for linear-scaling    |
 |   electronic structure calculations".                         |
 |   A. A. Mostofi, P. D. Haynes, C.-K. Skylaris, M. C. Payne.   |
 |   J. Chem. Phys. 119(17), pp.8842-8848 (2003).                |
 |                                                               |
 |  "Total-energy calculations on a real space grid with         |
 |   localized functions and a plane-wave basis".                |
 |   A. A. Mostofi, C.-K. Skylaris, P. D. Haynes, M. C. Payne.   |
 |   Comput. Phys. Commun. 147, pp.788-802 (2002).               |
 |                                                               |
 |  "Accurate kinetic energy evaluation in electronic structure  |
 |   calculations with localized functions on real space grids"  |
 |   C.-K. Skylaris, A. A. Mostofi, P. D. Haynes, C. J. Pickard, |
 |   M. C. Payne.                                                |
 |   Comput. Phys. Commun. 140, pp.315-322 (2001).               |
 |                                                               |
 |  "Accurate ionic forces and geometry optimization in linear-  |
 |   scaling density-functional theory with local orbitals"      |
 |   N. D. M. Hine, M. Robinson, P. D. Haynes, C.-K. Skylaris,   |
 |   M. C. Payne, and A. A. Mostofi.                             |
 |   Phys. Rev. B 83 195102 (2011).                              |
 |                                                               |
 +---------------------------------------------------------------+

Job started: 09-03-2020 12:53 (-0000)
 
Reading parameters from file "5.500496_GO_manual_4x64graphite.dat" ...

WARNING: "cutoff_energy" not specified, but "psinc_spacing" specified.
         Using the latter to set the KE cutoff energy to  732.32021eV,
         thus *overriding* the default.

... done

If your calculation crashes here, before "Checking processes and threads..."
is displayed, then your stack size is insufficient.
If so, use "ulimit -s unlimited" at runtime.
You can disable this check with "check_stack_size F".

Checking processes and threads...
   Determining the default number of threads...
      No default threads set at compilation time: defaulting to 1.
      OpenMP library call suggests 4 threads.
      Hybrid MPI-OpenMP compilation detected.
      Number of MPI processes > 1.
      OMP_NUM_THREADS environment variable present and
      its value matches the one obtained from the OpenMP library call.
      Using this value as default.
      Default threads: 4
      Default applies to threads_max and threads_num_fftboxes.
      Settings in the input file override this default.
   ... done

   Running with 40 MPI processes.
   There are 10 MPI processes running on the same node as the root process.
   Each MPI process is using: 
               1 threads for simulation cell FFTs.
               1 threads for parallel FFT box operations.
               4 threads for loops over batched FFT box operations.
               4 threads in other parallel regions.
... done

Basic input checks...
Resetting ngwf_cg_rotate to TRUE for EDFT calculations
... done

Reading geometry and species blocks from file "5.500496_GO_manual_4x64graphite.dat" ...
    
  PSINC grid spacing along a1 set to   0.511215680000a0 from input file.
  PSINC grid spacing along a2 set to   0.531284090000a0 from input file.
  PSINC grid spacing along a3 set to   0.507046450000a0 from input file.
  Number of PPD points along a3 set to 1.  This is 
  the default value, it may have been provided also in the input file.
... done
 Writing xyz coordinates to file "5.500496_GO_manual_4x64graphite.xyz" ... done


--------------------------------------------------------------------------------
---------------------------------- INPUT FILE ----------------------------------
--------------------------------------------------------------------------------

task : singlepoint                                                              
do_properties : true                                                            
dx_format T                                                                     
edft T                                                                          
output_detail VERBOSE                                                           
write_xyz T                                                                     
xc_functional VDWDF                                                             
PSINC_SPACING 0.51121568 0.53128409 0.50704645                                  
paw T                                                                           
pdos_max_l = 2                                                                  
dos_smear  0.1 eV                                                               
popn_calculate T                                                                
PDOS_PSEUDOATOMIC T                                                             
PDOS_REDUCE_SWS F                                                               
PDOS_CONSTRUCT_BASIS F                                                          
PDOS_LOWDIN T                                                                   
PDOS_ORTH_ATOM_BLOCKS F                                                         
PDOS_LCAO_OPTIMIZE F                                                            
pdos_optados_output T                                                           
homo_plot 0                                                                     
lumo_plot 0                                                                     
homo_dens_plot -1                                                               
lumo_dens_plot -1                                                               
%BLOCK SPECIES                                                                  
C C 6 4 9.0                                                                     
%ENDBLOCK SPECIES                                                               
%BLOCK SPECIES_POT                                                              
C "~/pp/paw/c_pbe_abinit.paw"                                                   
%ENDBLOCK SPECIES_POT                                                           
%BLOCK SPECIES_ATOMIC_SET                                                       
C "SOLVE conf=2s2 2p2"                                                          
%ENDBLOCK SPECIES_ATOMIC_SET                                                    
%BLOCK LATTICE_CART                                                             
32.21  0.00  0.00                                                               
0.00 18.59  0.00                                                                
0.00  0.00 103.94                                                               
%ENDBLOCK LATTICE_CART                                                          
%BLOCK POSITIONS_ABS                                                            
C  0.00  0.00  5.20                                                             
C  0.00  0.00 25.99                                                             
C  0.00  0.00 46.78                                                             
C  0.00  0.00 67.56                                                             
C  0.00  0.00 88.35                                                             
C  0.00  4.65  5.20                                                             
C  0.00  4.65 25.99                                                             
C  0.00  4.65 46.78                                                             
C  0.00  4.65 67.56                                                             
C  0.00  4.65 88.35                                                             
C  4.03  2.32  5.20                                                             
C  4.03  2.32 25.99                                                             
C  4.03  2.32 46.78                                                             
C  4.03  2.32 67.56                                                             
C  4.03  2.32 88.35                                                             
C  8.05  0.00  5.20                                                             
C  8.05  0.00 25.99                                                             
C  8.05  0.00 46.78                                                             
C  8.05  0.00 67.56                                                             
C  8.05  0.00 88.35                                                             
C  0.00  9.30  5.20                                                             
C  0.00  9.30 25.99                                                             
C  0.00  9.30 46.78                                                             
C  0.00  9.30 67.56                                                             
C  0.00  9.30 88.35                                                             
C  4.03  6.97  5.20                                                             
C  4.03  6.97 25.99                                                             
C  4.03  6.97 46.78                                                             
C  4.03  6.97 67.56                                                             
C  4.03  6.97 88.35                                                             
C  8.05  4.65  5.20                                                             
C  8.05  4.65 25.99                                                             
C  8.05  4.65 46.78                                                             
C  8.05  4.65 67.56                                                             
C  8.05  4.65 88.35                                                             
C 12.08  2.32  5.20                                                             
C 12.08  2.32 25.99                                                             
C 12.08  2.32 46.78                                                             
C 12.08  2.32 67.56                                                             
C 12.08  2.32 88.35                                                             
C 16.10  0.00  5.20                                                             
C 16.10  0.00 25.99                                                             
C 16.10  0.00 46.78                                                             
C 16.10  0.00 67.56                                                             
C 16.10  0.00 88.35                                                             
C  0.00 13.95  5.20                                                             
C  0.00 13.95 25.99                                                             
C  0.00 13.95 46.78                                                             
C  0.00 13.95 67.56                                                             
C  0.00 13.95 88.35                                                             
C  4.03 11.62  5.20                                                             
C  4.03 11.62 25.99                                                             
C  4.03 11.62 46.78                                                             
C  4.03 11.62 67.56                                                             
C  4.03 11.62 88.35                                                             
C  8.05  9.30  5.20                                                             
C  8.05  9.30 25.99                                                             
C  8.05  9.30 46.78                                                             
C  8.05  9.30 67.56                                                             
C  8.05  9.30 88.35                                                             
C 12.08  6.97  5.20                                                             
C 12.08  6.97 25.99                                                             
C 12.08  6.97 46.78                                                             
C 12.08  6.97 67.56                                                             
C 12.08  6.97 88.35                                                             
C 16.10  4.65  5.20                                                             
C 16.10  4.65 25.99                                                             
C 16.10  4.65 46.78                                                             
C 16.10  4.65 67.56                                                             
C 16.10  4.65 88.35                                                             
C 20.13  2.32  5.20                                                             
C 20.13  2.32 25.99                                                             
C 20.13  2.32 46.78                                                             
C 20.13  2.32 67.56                                                             
C 20.13  2.32 88.35                                                             
C 24.16  0.00  5.20                                                             
C 24.16  0.00 25.99                                                             
C 24.16  0.00 46.78                                                             
C 24.16  0.00 67.56                                                             
C 24.16  0.00 88.35                                                             
C  4.03 16.27  5.20                                                             
C  4.03 16.27 25.99                                                             
C  4.03 16.27 46.78                                                             
C  4.03 16.27 67.56                                                             
C  4.03 16.27 88.35                                                             
C  8.05 13.95  5.20                                                             
C  8.05 13.95 25.99                                                             
C  8.05 13.95 46.78                                                             
C  8.05 13.95 67.56                                                             
C  8.05 13.95 88.35                                                             
C 12.08 11.62  5.20                                                             
C 12.08 11.62 25.99                                                             
C 12.08 11.62 46.78                                                             
C 12.08 11.62 67.56                                                             
C 12.08 11.62 88.35                                                             
C 16.10  9.30  5.20                                                             
C 16.10  9.30 25.99                                                             
C 16.10  9.30 46.78                                                             
C 16.10  9.30 67.56                                                             
C 16.10  9.30 88.35                                                             
C 20.13  6.97  5.20                                                             
C 20.13  6.97 25.99                                                             
C 20.13  6.97 46.78                                                             
C 20.13  6.97 67.56                                                             
C 20.13  6.97 88.35                                                             
C 24.16  4.65  5.20                                                             
C 24.16  4.65 25.99                                                             
C 24.16  4.65 46.78                                                             
C 24.16  4.65 67.56                                                             
C 24.16  4.65 88.35                                                             
C 28.18  2.32  5.20                                                             
C 28.18  2.32 25.99                                                             
C 28.18  2.32 46.78                                                             
C 28.18  2.32 67.56                                                             
C 28.18  2.32 88.35                                                             
C 12.08 16.27  5.20                                                             
C 12.08 16.27 25.99                                                             
C 12.08 16.27 46.78                                                             
C 12.08 16.27 67.56                                                             
C 12.08 16.27 88.35                                                             
C 16.10 13.95  5.20                                                             
C 16.10 13.95 25.99                                                             
C 16.10 13.95 46.78                                                             
C 16.10 13.95 67.56                                                             
C 16.10 13.95 88.35                                                             
C 20.13 11.62  5.20                                                             
C 20.13 11.62 25.99                                                             
C 20.13 11.62 46.78                                                             
C 20.13 11.62 67.56                                                             
C 20.13 11.62 88.35                                                             
C 24.16  9.30  5.20                                                             
C 24.16  9.30 25.99                                                             
C 24.16  9.30 46.78                                                             
C 24.16  9.30 67.56                                                             
C 24.16  9.30 88.35                                                             
C 28.18  6.97  5.20                                                             
C 28.18  6.97 25.99                                                             
C 28.18  6.97 46.78                                                             
C 28.18  6.97 67.56                                                             
C 28.18  6.97 88.35                                                             
C 20.13 16.27  5.20                                                             
C 20.13 16.27 25.99                                                             
C 20.13 16.27 46.78                                                             
C 20.13 16.27 67.56                                                             
C 20.13 16.27 88.35                                                             
C 24.16 13.95  5.20                                                             
C 24.16 13.95 25.99                                                             
C 24.16 13.95 46.78                                                             
C 24.16 13.95 67.56                                                             
C 24.16 13.95 88.35                                                             
C 28.18 11.62  5.20                                                             
C 28.18 11.62 25.99                                                             
C 28.18 11.62 46.78                                                             
C 28.18 11.62 67.56                                                             
C 28.18 11.62 88.35                                                             
C 28.18 16.27  5.20                                                             
C 28.18 16.27 25.99                                                             
C 28.18 16.27 46.78                                                             
C 28.18 16.27 67.56                                                             
C 28.18 16.27 88.35                                                             
C  0.00  0.00 15.59                                                             
C  0.00  0.00 36.38                                                             
C  0.00  0.00 57.17                                                             
C  0.00  0.00 77.96                                                             
C  0.00  0.00 98.75                                                             
C  0.00  4.65 15.59                                                             
C  0.00  4.65 36.38                                                             
C  0.00  4.65 57.17                                                             
C  0.00  4.65 77.96                                                             
C  0.00  4.65 98.75                                                             
C  4.03  2.32 15.59                                                             
C  4.03  2.32 36.38                                                             
C  4.03  2.32 57.17                                                             
C  4.03  2.32 77.96                                                             
C  4.03  2.32 98.75                                                             
C  8.05  0.00 15.59                                                             
C  8.05  0.00 36.38                                                             
C  8.05  0.00 57.17                                                             
C  8.05  0.00 77.96                                                             
C  8.05  0.00 98.75                                                             
C  0.00  9.30 15.59                                                             
C  0.00  9.30 36.38                                                             
C  0.00  9.30 57.17                                                             
C  0.00  9.30 77.96                                                             
C  0.00  9.30 98.75                                                             
C  4.03  6.97 15.59                                                             
C  4.03  6.97 36.38                                                             
C  4.03  6.97 57.17                                                             
C  4.03  6.97 77.96                                                             
C  4.03  6.97 98.75                                                             
C  8.05  4.65 15.59                                                             
C  8.05  4.65 36.38                                                             
C  8.05  4.65 57.17                                                             
C  8.05  4.65 77.96                                                             
C  8.05  4.65 98.75                                                             
C 12.08  2.32 15.59                                                             
C 12.08  2.32 36.38                                                             
C 12.08  2.32 57.17                                                             
C 12.08  2.32 77.96                                                             
C 12.08  2.32 98.75                                                             
C 16.10  0.00 15.59                                                             
C 16.10  0.00 36.38                                                             
C 16.10  0.00 57.17                                                             
C 16.10  0.00 77.96                                                             
C 16.10  0.00 98.75                                                             
C  0.00 13.95 15.59                                                             
C  0.00 13.95 36.38                                                             
C  0.00 13.95 57.17                                                             
C  0.00 13.95 77.96                                                             
C  0.00 13.95 98.75                                                             
C  4.03 11.62 15.59                                                             
C  4.03 11.62 36.38                                                             
C  4.03 11.62 57.17                                                             
C  4.03 11.62 77.96                                                             
C  4.03 11.62 98.75                                                             
C  8.05  9.30 15.59                                                             
C  8.05  9.30 36.38                                                             
C  8.05  9.30 57.17                                                             
C  8.05  9.30 77.96                                                             
C  8.05  9.30 98.75                                                             
C 12.08  6.97 15.59                                                             
C 12.08  6.97 36.38                                                             
C 12.08  6.97 57.17                                                             
C 12.08  6.97 77.96                                                             
C 12.08  6.97 98.75                                                             
C 16.10  4.65 15.59                                                             
C 16.10  4.65 36.38                                                             
C 16.10  4.65 57.17                                                             
C 16.10  4.65 77.96                                                             
C 16.10  4.65 98.75                                                             
C 20.13  2.32 15.59                                                             
C 20.13  2.32 36.38                                                             
C 20.13  2.32 57.17                                                             
C 20.13  2.32 77.96                                                             
C 20.13  2.32 98.75                                                             
C 24.16  0.00 15.59                                                             
C 24.16  0.00 36.38                                                             
C 24.16  0.00 57.17                                                             
C 24.16  0.00 77.96                                                             
C 24.16  0.00 98.75                                                             
C  4.03 16.27 15.59                                                             
C  4.03 16.27 36.38                                                             
C  4.03 16.27 57.17                                                             
C  4.03 16.27 77.96                                                             
C  4.03 16.27 98.75                                                             
C  8.05 13.95 15.59                                                             
C  8.05 13.95 36.38                                                             
C  8.05 13.95 57.17                                                             
C  8.05 13.95 77.96                                                             
C  8.05 13.95 98.75                                                             
C 12.08 11.62 15.59                                                             
C 12.08 11.62 36.38                                                             
C 12.08 11.62 57.17                                                             
C 12.08 11.62 77.96                                                             
C 12.08 11.62 98.75                                                             
C 16.10  9.30 15.59                                                             
C 16.10  9.30 36.38                                                             
C 16.10  9.30 57.17                                                             
C 16.10  9.30 77.96                                                             
C 16.10  9.30 98.75                                                             
C 20.13  6.97 15.59                                                             
C 20.13  6.97 36.38                                                             
C 20.13  6.97 57.17                                                             
C 20.13  6.97 77.96                                                             
C 20.13  6.97 98.75                                                             
C 24.16  4.65 15.59                                                             
C 24.16  4.65 36.38                                                             
C 24.16  4.65 57.17                                                             
C 24.16  4.65 77.96                                                             
C 24.16  4.65 98.75                                                             
C 28.18  2.32 15.59                                                             
C 28.18  2.32 36.38                                                             
C 28.18  2.32 57.17                                                             
C 28.18  2.32 77.96                                                             
C 28.18  2.32 98.75                                                             
C 12.08 16.27 15.59                                                             
C 12.08 16.27 36.38                                                             
C 12.08 16.27 57.17                                                             
C 12.08 16.27 77.96                                                             
C 12.08 16.27 98.75                                                             
C 16.10 13.95 15.59                                                             
C 16.10 13.95 36.38                                                             
C 16.10 13.95 57.17                                                             
C 16.10 13.95 77.96                                                             
C 16.10 13.95 98.75                                                             
C 20.13 11.62 15.59                                                             
C 20.13 11.62 36.38                                                             
C 20.13 11.62 57.17                                                             
C 20.13 11.62 77.96                                                             
C 20.13 11.62 98.75                                                             
C 24.16  9.30 15.59                                                             
C 24.16  9.30 36.38                                                             
C 24.16  9.30 57.17                                                             
C 24.16  9.30 77.96                                                             
C 24.16  9.30 98.75                                                             
C 28.18  6.97 15.59                                                             
C 28.18  6.97 36.38                                                             
C 28.18  6.97 57.17                                                             
C 28.18  6.97 77.96                                                             
C 28.18  6.97 98.75                                                             
C 20.13 16.27 15.59                                                             
C 20.13 16.27 36.38                                                             
C 20.13 16.27 57.17                                                             
C 20.13 16.27 77.96                                                             
C 20.13 16.27 98.75                                                             
C 24.16 13.95 15.59                                                             
C 24.16 13.95 36.38                                                             
C 24.16 13.95 57.17                                                             
C 24.16 13.95 77.96                                                             
C 24.16 13.95 98.75                                                             
C 28.18 11.62 15.59                                                             
C 28.18 11.62 36.38                                                             
C 28.18 11.62 57.17                                                             
C 28.18 11.62 77.96                                                             
C 28.18 11.62 98.75                                                             
C 28.18 16.27 15.59                                                             
C 28.18 16.27 36.38                                                             
C 28.18 16.27 57.17                                                             
C 28.18 16.27 77.96                                                             
C 28.18 16.27 98.75                                                             
C  1.34  2.32  5.20                                                             
C  1.34  2.32 25.99                                                             
C  1.34  2.32 46.78                                                             
C  1.34  2.32 67.56                                                             
C  1.34  2.32 88.35                                                             
C  5.37  0.00  5.20                                                             
C  5.37  0.00 25.99                                                             
C  5.37  0.00 46.78                                                             
C  5.37  0.00 67.56                                                             
C  5.37  0.00 88.35                                                             
C  1.34  6.97  5.20                                                             
C  1.34  6.97 25.99                                                             
C  1.34  6.97 46.78                                                             
C  1.34  6.97 67.56                                                             
C  1.34  6.97 88.35                                                             
C  5.37  4.65  5.20                                                             
C  5.37  4.65 25.99                                                             
C  5.37  4.65 46.78                                                             
C  5.37  4.65 67.56                                                             
C  5.37  4.65 88.35                                                             
C  9.39  2.32  5.20                                                             
C  9.39  2.32 25.99                                                             
C  9.39  2.32 46.78                                                             
C  9.39  2.32 67.56                                                             
C  9.39  2.32 88.35                                                             
C 13.42  0.00  5.20                                                             
C 13.42  0.00 25.99                                                             
C 13.42  0.00 46.78                                                             
C 13.42  0.00 67.56                                                             
C 13.42  0.00 88.35                                                             
C  1.34 11.62  5.20                                                             
C  1.34 11.62 25.99                                                             
C  1.34 11.62 46.78                                                             
C  1.34 11.62 67.56                                                             
C  1.34 11.62 88.35                                                             
C  5.37  9.30  5.20                                                             
C  5.37  9.30 25.99                                                             
C  5.37  9.30 46.78                                                             
C  5.37  9.30 67.56                                                             
C  5.37  9.30 88.35                                                             
C  9.39  6.97  5.20                                                             
C  9.39  6.97 25.99                                                             
C  9.39  6.97 46.78                                                             
C  9.39  6.97 67.56                                                             
C  9.39  6.97 88.35                                                             
C 13.42  4.65  5.20                                                             
C 13.42  4.65 25.99                                                             
C 13.42  4.65 46.78                                                             
C 13.42  4.65 67.56                                                             
C 13.42  4.65 88.35                                                             
C 17.45  2.32  5.20                                                             
C 17.45  2.32 25.99                                                             
C 17.45  2.32 46.78                                                             
C 17.45  2.32 67.56                                                             
C 17.45  2.32 88.35                                                             
C 21.47  0.00  5.20                                                             
C 21.47  0.00 25.99                                                             
C 21.47  0.00 46.78                                                             
C 21.47  0.00 67.56                                                             
C 21.47  0.00 88.35                                                             
C  1.34 16.27  5.20                                                             
C  1.34 16.27 25.99                                                             
C  1.34 16.27 46.78                                                             
C  1.34 16.27 67.56                                                             
C  1.34 16.27 88.35                                                             
C  5.37 13.95  5.20                                                             
C  5.37 13.95 25.99                                                             
C  5.37 13.95 46.78                                                             
C  5.37 13.95 67.56                                                             
C  5.37 13.95 88.35                                                             
C  9.39 11.62  5.20                                                             
C  9.39 11.62 25.99                                                             
C  9.39 11.62 46.78                                                             
C  9.39 11.62 67.56                                                             
C  9.39 11.62 88.35                                                             
C 13.42  9.30  5.20                                                             
C 13.42  9.30 25.99                                                             
C 13.42  9.30 46.78                                                             
C 13.42  9.30 67.56                                                             
C 13.42  9.30 88.35                                                             
C 17.45  6.97  5.20                                                             
C 17.45  6.97 25.99                                                             
C 17.45  6.97 46.78                                                             
C 17.45  6.97 67.56                                                             
C 17.45  6.97 88.35                                                             
C 21.47  4.65  5.20                                                             
C 21.47  4.65 25.99                                                             
C 21.47  4.65 46.78                                                             
C 21.47  4.65 67.56                                                             
C 21.47  4.65 88.35                                                             
C 25.50  2.32  5.20                                                             
C 25.50  2.32 25.99                                                             
C 25.50  2.32 46.78                                                             
C 25.50  2.32 67.56                                                             
C 25.50  2.32 88.35                                                             
C 29.52  0.00  5.20                                                             
C 29.52  0.00 25.99                                                             
C 29.52  0.00 46.78                                                             
C 29.52  0.00 67.56                                                             
C 29.52  0.00 88.35                                                             
C  9.39 16.27  5.20                                                             
C  9.39 16.27 25.99                                                             
C  9.39 16.27 46.78                                                             
C  9.39 16.27 67.56                                                             
C  9.39 16.27 88.35                                                             
C 13.42 13.95  5.20                                                             
C 13.42 13.95 25.99                                                             
C 13.42 13.95 46.78                                                             
C 13.42 13.95 67.56                                                             
C 13.42 13.95 88.35                                                             
C 17.45 11.62  5.20                                                             
C 17.45 11.62 25.99                                                             
C 17.45 11.62 46.78                                                             
C 17.45 11.62 67.56                                                             
C 17.45 11.62 88.35                                                             
C 21.47  9.30  5.20                                                             
C 21.47  9.30 25.99                                                             
C 21.47  9.30 46.78                                                             
C 21.47  9.30 67.56                                                             
C 21.47  9.30 88.35                                                             
C 25.50  6.97  5.20                                                             
C 25.50  6.97 25.99                                                             
C 25.50  6.97 46.78                                                             
C 25.50  6.97 67.56                                                             
C 25.50  6.97 88.35                                                             
C 29.52  4.65  5.20                                                             
C 29.52  4.65 25.99                                                             
C 29.52  4.65 46.78                                                             
C 29.52  4.65 67.56                                                             
C 29.52  4.65 88.35                                                             
C 17.45 16.27  5.20                                                             
C 17.45 16.27 25.99                                                             
C 17.45 16.27 46.78                                                             
C 17.45 16.27 67.56                                                             
C 17.45 16.27 88.35                                                             
C 21.47 13.95  5.20                                                             
C 21.47 13.95 25.99                                                             
C 21.47 13.95 46.78                                                             
C 21.47 13.95 67.56                                                             
C 21.47 13.95 88.35                                                             
C 25.50 11.62  5.20                                                             
C 25.50 11.62 25.99                                                             
C 25.50 11.62 46.78                                                             
C 25.50 11.62 67.56                                                             
C 25.50 11.62 88.35                                                             
C 29.52  9.30  5.20                                                             
C 29.52  9.30 25.99                                                             
C 29.52  9.30 46.78                                                             
C 29.52  9.30 67.56                                                             
C 29.52  9.30 88.35                                                             
C 25.50 16.27  5.20                                                             
C 25.50 16.27 25.99                                                             
C 25.50 16.27 46.78                                                             
C 25.50 16.27 67.56                                                             
C 25.50 16.27 88.35                                                             
C 29.52 13.95  5.20                                                             
C 29.52 13.95 25.99                                                             
C 29.52 13.95 46.78                                                             
C 29.52 13.95 67.56                                                             
C 29.52 13.95 88.35                                                             
C  2.68  0.00 15.59                                                             
C  2.68  0.00 36.38                                                             
C  2.68  0.00 57.17                                                             
C  2.68  0.00 77.96                                                             
C  2.68  0.00 98.75                                                             
C  2.68  4.65 15.59                                                             
C  2.68  4.65 36.38                                                             
C  2.68  4.65 57.17                                                             
C  2.68  4.65 77.96                                                             
C  2.68  4.65 98.75                                                             
C  6.71  2.32 15.59                                                             
C  6.71  2.32 36.38                                                             
C  6.71  2.32 57.17                                                             
C  6.71  2.32 77.96                                                             
C  6.71  2.32 98.75                                                             
C 10.74  0.00 15.59                                                             
C 10.74  0.00 36.38                                                             
C 10.74  0.00 57.17                                                             
C 10.74  0.00 77.96                                                             
C 10.74  0.00 98.75                                                             
C  2.68  9.30 15.59                                                             
C  2.68  9.30 36.38                                                             
C  2.68  9.30 57.17                                                             
C  2.68  9.30 77.96                                                             
C  2.68  9.30 98.75                                                             
C  6.71  6.97 15.59                                                             
C  6.71  6.97 36.38                                                             
C  6.71  6.97 57.17                                                             
C  6.71  6.97 77.96                                                             
C  6.71  6.97 98.75                                                             
C 10.74  4.65 15.59                                                             
C 10.74  4.65 36.38                                                             
C 10.74  4.65 57.17                                                             
C 10.74  4.65 77.96                                                             
C 10.74  4.65 98.75                                                             
C 14.76  2.32 15.59                                                             
C 14.76  2.32 36.38                                                             
C 14.76  2.32 57.17                                                             
C 14.76  2.32 77.96                                                             
C 14.76  2.32 98.75                                                             
C 18.79  0.00 15.59                                                             
C 18.79  0.00 36.38                                                             
C 18.79  0.00 57.17                                                             
C 18.79  0.00 77.96                                                             
C 18.79  0.00 98.75                                                             
C  2.68 13.95 15.59                                                             
C  2.68 13.95 36.38                                                             
C  2.68 13.95 57.17                                                             
C  2.68 13.95 77.96                                                             
C  2.68 13.95 98.75                                                             
C  6.71 11.62 15.59                                                             
C  6.71 11.62 36.38                                                             
C  6.71 11.62 57.17                                                             
C  6.71 11.62 77.96                                                             
C  6.71 11.62 98.75                                                             
C 10.74  9.30 15.59                                                             
C 10.74  9.30 36.38                                                             
C 10.74  9.30 57.17                                                             
C 10.74  9.30 77.96                                                             
C 10.74  9.30 98.75                                                             
C 14.76  6.97 15.59                                                             
C 14.76  6.97 36.38                                                             
C 14.76  6.97 57.17                                                             
C 14.76  6.97 77.96                                                             
C 14.76  6.97 98.75                                                             
C 18.79  4.65 15.59                                                             
C 18.79  4.65 36.38                                                             
C 18.79  4.65 57.17                                                             
C 18.79  4.65 77.96                                                             
C 18.79  4.65 98.75                                                             
C 22.81  2.32 15.59                                                             
C 22.81  2.32 36.38                                                             
C 22.81  2.32 57.17                                                             
C 22.81  2.32 77.96                                                             
C 22.81  2.32 98.75                                                             
C 26.84  0.00 15.59                                                             
C 26.84  0.00 36.38                                                             
C 26.84  0.00 57.17                                                             
C 26.84  0.00 77.96                                                             
C 26.84  0.00 98.75                                                             
C  6.71 16.27 15.59                                                             
C  6.71 16.27 36.38                                                             
C  6.71 16.27 57.17                                                             
C  6.71 16.27 77.96                                                             
C  6.71 16.27 98.75                                                             
C 10.74 13.95 15.59                                                             
C 10.74 13.95 36.38                                                             
C 10.74 13.95 57.17                                                             
C 10.74 13.95 77.96                                                             
C 10.74 13.95 98.75                                                             
C 14.76 11.62 15.59                                                             
C 14.76 11.62 36.38                                                             
C 14.76 11.62 57.17                                                             
C 14.76 11.62 77.96                                                             
C 14.76 11.62 98.75                                                             
C 18.79  9.30 15.59                                                             
C 18.79  9.30 36.38                                                             
C 18.79  9.30 57.17                                                             
C 18.79  9.30 77.96                                                             
C 18.79  9.30 98.75                                                             
C 22.81  6.97 15.59                                                             
C 22.81  6.97 36.38                                                             
C 22.81  6.97 57.17                                                             
C 22.81  6.97 77.96                                                             
C 22.81  6.97 98.75                                                             
C 26.84  4.65 15.59                                                             
C 26.84  4.65 36.38                                                             
C 26.84  4.65 57.17                                                             
C 26.84  4.65 77.96                                                             
C 26.84  4.65 98.75                                                             
C 30.86  2.32 15.59                                                             
C 30.86  2.32 36.38                                                             
C 30.86  2.32 57.17                                                             
C 30.86  2.32 77.96                                                             
C 30.86  2.32 98.75                                                             
C 14.76 16.27 15.59                                                             
C 14.76 16.27 36.38                                                             
C 14.76 16.27 57.17                                                             
C 14.76 16.27 77.96                                                             
C 14.76 16.27 98.75                                                             
C 18.79 13.95 15.59                                                             
C 18.79 13.95 36.38                                                             
C 18.79 13.95 57.17                                                             
C 18.79 13.95 77.96                                                             
C 18.79 13.95 98.75                                                             
C 22.81 11.62 15.59                                                             
C 22.81 11.62 36.38                                                             
C 22.81 11.62 57.17                                                             
C 22.81 11.62 77.96                                                             
C 22.81 11.62 98.75                                                             
C 26.84  9.30 15.59                                                             
C 26.84  9.30 36.38                                                             
C 26.84  9.30 57.17                                                             
C 26.84  9.30 77.96                                                             
C 26.84  9.30 98.75                                                             
C 30.86  6.97 15.59                                                             
C 30.86  6.97 36.38                                                             
C 30.86  6.97 57.17                                                             
C 30.86  6.97 77.96                                                             
C 30.86  6.97 98.75                                                             
C 22.81 16.27 15.59                                                             
C 22.81 16.27 36.38                                                             
C 22.81 16.27 57.17                                                             
C 22.81 16.27 77.96                                                             
C 22.81 16.27 98.75                                                             
C 26.84 13.95 15.59                                                             
C 26.84 13.95 36.38                                                             
C 26.84 13.95 57.17                                                             
C 26.84 13.95 77.96                                                             
C 26.84 13.95 98.75                                                             
C 30.86 11.62 15.59                                                             
C 30.86 11.62 36.38                                                             
C 30.86 11.62 57.17                                                             
C 30.86 11.62 77.96                                                             
C 30.86 11.62 98.75                                                             
C 30.86 16.27 15.59                                                             
C 30.86 16.27 36.38                                                             
C 30.86 16.27 57.17                                                             
C 30.86 16.27 77.96                                                             
C 30.86 16.27 98.75                                                             
%ENDBLOCK POSITIONS_ABS                                                         

--------------------------------------------------------------------------------
-------------------------------- END INPUT FILE --------------------------------
--------------------------------------------------------------------------------


 
<<<<<<<<<<<<<<<<<<<<<<<<<<<<<<<<< Full system >>>>>>>>>>>>>>>>>>>>>>>>>>>>>>>>>>
<<<<<<<<<<<<<<<<<<<<<<<<<<< PAW Dataset information >>>>>>>>>>>>>>>>>>>>>>>>>>>
File: ~/pp/paw/c_pbe_abinit.paw; rc = 1.25 bohr; shape type =  3; rshape = 1.25 bohr;
  Atomic number:  6;  ionic charge:  4.000000
    Partial Wave 1: l = 0
    Partial Wave 2: l = 0
    Partial Wave 3: l = 1
    Partial Wave 4: l = 1
  Core charge supplied for Nonlinear Core Corrections
<<<<<<<<<<<<<<<<<<<<<<<<<<<<<<<<<<<<<<< >>>>>>>>>>>>>>>>>>>>>>>>>>>>>>>>>>>>>>>

-------------------------- Atom counting information ---------------------------
Symbol    Natoms    Nngwfs    Nprojs
  C        640      2560      5120
.......   ......    ......    ......
Totals:    640      2560      5120
--------------------------------------------------------------------------------

=============================== PSINC grid sizes ===============================
                      Simulation cell:   63 x  35 x 205
                              FFT-box:   63 x  35 x 117
                                  PPD:    7 x   5 x   1
Grid space d1=  0.511269841270a0 (KE cutoff=  29.06054Eh = 790.77748eV)
Grid space d2=  0.531142857143a0 (KE cutoff=  26.92659Eh = 732.70972eV)
Grid space d3=  0.507024390244a0 (KE cutoff=  29.54924Eh = 804.07570eV)
================================================================================
  
WARNING in cell_grid_distribute:
Average of less than one 23-slab per node, so workload cannot be
equally balanced between nodes.

********************* Fourier parallelisation information **********************
       Coarse grid (whole simulation cell) dimensions:     63    35   205
          Real-space ('12') slabs/node (min max mean):      5     6     5
         Recip-space ('23') slabs/node (min max mean):      0     1     0
********************************************************************************

********************* Fourier parallelisation information **********************
       Double grid (whole simulation cell) dimensions:    126    70   410
          Real-space ('12') slabs/node (min max mean):     10    11    10
         Recip-space ('23') slabs/node (min max mean):      1     2     1
********************************************************************************

Atom SCF Calculation for C  : Z (AE atom) =   6 : Z (PS atom) =   4
Config String: 2s2 2p2
Orbitals (num,occ):  2     2.00 2.00
Orbitals   (num,l):  2        0    1
Real-space Grid (nr,dr,rmax): 1293    0.0069659443    9.0000000000
Spherical Bessel Basis (nsws,lmax,cutoff):   37    2  161.4736382572
Confining potential (l,width,scale):  0    3.0000000000  100.0000000000
Confining potential (l,width,scale):  1    3.0000000000  100.0000000000
  1         -5.4966243538   -1.3415066196    4.5135257941   -1.6613421942
  2         -5.4660395227   -1.4172174419    4.4326892861   -1.6365362708
  3         -5.4759582348   -1.4337557188    4.4144498970   -1.6324663609
  4         -5.4843804720   -1.4365219414    4.4114201180   -1.6322033818
  5         -5.4882713954   -1.4381734139    4.4096331461   -1.6320227940
  6         -5.4902132675   -1.4390636620    4.4086785626   -1.6319270645
  7         -5.4912093711   -1.4395303631    4.4081823351   -1.6318789226
  8         -5.4917264140   -1.4397726342    4.4079268833   -1.6318551036
  9         -5.4919964206   -1.4398979410    4.4077958777   -1.6318434025
 10         -5.4921379132   -1.4399626875    4.4077287721   -1.6318376788
 11         -5.4922122245   -1.4399961532    4.4076943935   -1.6318348878
 12         -5.4922513136   -1.4400134684    4.4076767658   -1.6318335308
 13         -5.4922719001   -1.4400224400    4.4076677156   -1.6318328728
 14         -5.4922827535   -1.4400270959    4.4076630621   -1.6318325547
 15         -5.4922884809   -1.4400295164    4.4076606653   -1.6318324014
 16         -5.4922915059   -1.4400307770    4.4076594286   -1.6318323279
 17         -5.4922931051   -1.4400314347    4.4076587894   -1.6318322927
 18         -5.4922939512   -1.4400317785    4.4076584583   -1.6318322760
 19         -5.4922943993   -1.4400319585    4.4076582865   -1.6318322681
 20         -5.4922946368   -1.4400320529    4.4076581972   -1.6318322644
 21         -5.4922947627   -1.4400321025    4.4076581507   -1.6318322627
 22         -5.4922948296   -1.4400321287    4.4076581265   -1.6318322619
Atom SCF converged after  22 iterations to a total energy of     -5.49229483

Determining parallel strategy ...
... using space-filling curve
... NGWF load balancing: max     64;  min     64;  average     64
... Projector load balancing: max    128;  min    128;  average    128
... done
Calculating Ewald energy ...
              Ewald: real-space energy =    9952.144771
        Ewald: reciprocal-space energy =      18.090377
         Ewald: (sum_charge)**2 Energy =    9594.867932
         Ewald: (sum_charge**2) Energy =     758.540913
                          Ewald Energy =    -383.173696
Basis initialisation ...... NGWF spheres initialised
... Projector spheres initialised
... NGWF tight boxes initialised
... Projector tight boxes initialised
... Tight-boxes gathered
... NGWF basis size (local,global):     692532  27889120
... PAW projector initialisation
... done

============================= Charge Augmentation ==============================
                           Aug box size:   11 x  11 x  11
================================================================================

========================== Sparse matrix information ===========================
                        Overlap matrix filling:  26.88%
                        Density kernel filling: 100.00%
              NGWF-Proj overlap matrix filling:   5.47%
                    Aug Overlap matrix filling:  27.03%
                    Hamiltonian matrix filling:  27.03%
                  NGWF diagonal matrix filling:   0.16%
                             KS matrix filling: 100.00% 
                           KSKS matrix filling: 100.00% 
================================================================================

Sparse matrix initialisation ... done
NGWF initialisation ...... done
============ Calculation of NGWF S^-1 using Hotelling algorithm ================ 
         Iteration  |  Frobenius norm and Maximum abs value    (of I-S*S_n^-1)   
               1       0.48711690E+02     0.97108587E+00
               2       0.47272954E+02     0.94430079E+00
               3       0.45212025E+02     0.89624640E+00
               4       0.42645854E+02     0.81747946E+00
               5       0.39622865E+02     0.71479281E+00
               6       0.36213093E+02     0.66245264E+00
               7       0.32793402E+02     0.61744120E+00
               8       0.29475741E+02     0.57776164E+00
               9       0.25682341E+02     0.52748504E+00
              10       0.20747456E+02     0.44569296E+00
              11       0.14452348E+02     0.32179149E+00
              12       0.77143224E+01     0.17341631E+00
              13       0.25647293E+01     0.54956809E-01
              14       0.34216696E+00     0.65356601E-02
              15       0.74733774E-02     0.11678790E-03
              16       0.50201776E-05     0.52372683E-07
              17       0.34442944E-11     0.25424107E-13
================================================================================
Calculating core density ...
================================= Core Density =================================
               Core den box size:   21 x  21 x  21
================================================================================
 ... done
Up spin density kernel initialisation ...... done

Writing density kernel to file "5.500496_GO_manual_4x64graphite.dkn" ... done

>>> Optimising kernel for current NGWFs:

--------------------------- Ensemble-DFT optimisation --------------------------
Running ScaLAPACK on   40 processor(s).

--------------------------------------------------------------------------------
  Iter                              Commutator    Free_energy(A=E-TS)     DeltaA
#    0                          0.000043037868   -3651.31764373544729  -3.65E+03

Step                       =       0.381966011250
Energy                     =   -3651.317618606088
Entropy (-TS)              =      -0.000025129360
Free energy (A=E-TS)       =   -3651.317643735447
Est. 0K Energy 0.5*(E+A)   =   -3651.317631170768
Residual Non-orthogonality =       0.000000000000
Residual N_electrons       =       0.000000000001

Spin          Integrated_Ne            Fermi_level     Delta_Fermi_level
   1      2559.999999999960         0.018765405687              1.88E-02

                           Spin 1          
     Orb      H-eigenvalues     Occupancies
       1 |    -0.7024398090    1.0000000000 | 
                          ------
    1276 |    -0.0180175613    0.9999909717 | 
    1277 |    -0.0180165410    0.9999909688 | 
    1278 |    -0.0180162949    0.9999909681 | 
    1279 |    -0.0180158257    0.9999909668 | 
    1280 |    -0.0180149830    0.9999909644 | 
                 - Gap at zero temperature -
    1281 |     0.0556753450    0.0000086734 | 
    1282 |     0.0556761779    0.0000086711 | 
    1283 |     0.0556764569    0.0000086704 | 
    1284 |     0.0556771370    0.0000086685 | 
    1285 |     0.0556773296    0.0000086680 | 
                          ------
    2560 |     0.8522042441    0.0000000000 | 

                       |  Abs_value |  Threshold | Converged
     Delta_Free_energy |   3.65E+03 |   1.00E-06 |        No
     Delta_Energy      |   3.65E+03 |   1.00E-04 |        No
     Delta_Entropy     |   2.51E-05 |   1.00E-04 |       Yes
     Commutator        |   4.30E-05 |   1.00E-05 |        No
     Delta_Fermi_level |   1.88E-02 |   1.00E-03 |        No

  Line search of the free energy minimum:
  Step_type        Step             Free_energy   Predicted_free_energy
.   Initial    0.000000    -3651.31764373544729
.    Trial1    0.381966    -3651.31971172822796
.    Trial2    0.618034    -3651.32033383845874
. Quadratic    0.793062    -3651.32047306133200    -3651.32047157702709

--------------------------------------------------------------------------------
  Iter                              Commutator    Free_energy(A=E-TS)     DeltaA
#    1                          0.000018528975   -3651.32047306133200  -2.83E-03

Step                       =       0.793061910477
Energy                     =   -3651.320447363562
Entropy (-TS)              =      -0.000025697778
Free energy (A=E-TS)       =   -3651.320473061332
Est. 0K Energy 0.5*(E+A)   =   -3651.320460212447
Residual Non-orthogonality =       0.000000000000
Residual N_electrons       =       0.000000000008

Spin          Integrated_Ne            Fermi_level     Delta_Fermi_level
   1      2559.999999999025         0.008229307760             -1.05E-02

                           Spin 1          
     Orb      H-eigenvalues     Occupancies
       1 |    -0.7162938545    1.0000000000 | 
                          ------
    1276 |    -0.0285636606    0.9999910002 | 
    1277 |    -0.0285628501    0.9999909979 | 
    1278 |    -0.0285619017    0.9999909952 | 
    1279 |    -0.0285601182    0.9999909901 | 
    1280 |    -0.0285597383    0.9999909891 | 
                 - Gap at zero temperature -
    1281 |     0.0449721006    0.0000091435 | 
    1282 |     0.0449734506    0.0000091396 | 
    1283 |     0.0449745944    0.0000091363 | 
    1284 |     0.0449752994    0.0000091343 | 
    1285 |     0.0449758723    0.0000091326 | 
                          ------
    2560 |     0.8375309710    0.0000000000 | 

                       |  Abs_value |  Threshold | Converged
     Delta_Free_energy |   2.83E-03 |   1.00E-06 |        No
     Delta_Energy      |   2.83E-03 |   1.00E-04 |        No
     Delta_Entropy     |   5.68E-07 |   1.00E-04 |       Yes
     Commutator        |   1.85E-05 |   1.00E-05 |        No
     Delta_Fermi_level |   1.05E-02 |   1.00E-03 |        No

  Line search of the free energy minimum:
  Step_type        Step             Free_energy   Predicted_free_energy
.   Initial    0.000000    -3651.32047306133200
.    Trial1    0.793062    -3651.31959601946392
.    Trial2    0.302923    -3651.32083965996617
. Quadratic    0.279515    -3651.32084225544850    -3651.32084224913615

--------------------------------------------------------------------------------
  Iter                              Commutator    Free_energy(A=E-TS)     DeltaA
#    2                          0.000007149239   -3651.32084225544850  -3.69E-04

Step                       =       0.279514846276
Energy                     =   -3651.320816530483
Entropy (-TS)              =      -0.000025724976
Free energy (A=E-TS)       =   -3651.320842255448
Est. 0K Energy 0.5*(E+A)   =   -3651.320829392966
Residual Non-orthogonality =       0.000000000000
Residual N_electrons       =       0.000000000010

Spin          Integrated_Ne            Fermi_level     Delta_Fermi_level
   1      2559.999999998714         0.007480819046             -7.48E-04

                           Spin 1          
     Orb      H-eigenvalues     Occupancies
       1 |    -0.7172901695    1.0000000000 | 
                          ------
    1276 |    -0.0292680958    0.9999908741 | 
    1277 |    -0.0292675836    0.9999908727 | 
    1278 |    -0.0292663945    0.9999908692 | 
    1279 |    -0.0292646959    0.9999908643 | 
    1280 |    -0.0292642815    0.9999908631 | 
                 - Gap at zero temperature -
    1281 |     0.0442595366    0.0000090404 | 
    1282 |     0.0442607572    0.0000090369 | 
    1283 |     0.0442617517    0.0000090341 | 
    1284 |     0.0442624194    0.0000090321 | 
    1285 |     0.0442629484    0.0000090306 | 
                          ------
    2560 |     0.8364792923    0.0000000000 | 

                       |  Abs_value |  Threshold | Converged
     Delta_Free_energy |   3.69E-04 |   1.00E-06 |        No
     Delta_Energy      |   3.69E-04 |   1.00E-04 |        No
     Delta_Entropy     |   2.72E-08 |   1.00E-04 |       Yes
     Commutator        |   7.15E-06 |   1.00E-05 |       Yes
     Delta_Fermi_level |   7.48E-04 |   1.00E-03 |       Yes

  Line search of the free energy minimum:
  Step_type        Step             Free_energy   Predicted_free_energy
.   Initial    0.000000    -3651.32084225544850
.    Trial1    0.279515    -3651.32089040764140
.    Trial2    0.554716    -3651.32089502198005
. Quadratic    0.447021    -3651.32089827215350    -3651.32089827326445

--------------------------------------------------------------------------------
  Iter                              Commutator    Free_energy(A=E-TS)     DeltaA
#    3                          0.000004213628   -3651.32089827215350  -5.60E-05

Step                       =       0.447021392189
Energy                     =   -3651.320872521231
Entropy (-TS)              =      -0.000025750927
Free energy (A=E-TS)       =   -3651.320898272153
Est. 0K Energy 0.5*(E+A)   =   -3651.320885396693
Residual Non-orthogonality =       0.000000000000
Residual N_electrons       =       0.000000000005

Spin          Integrated_Ne            Fermi_level     Delta_Fermi_level
   1      2559.999999999297         0.006616443091             -8.64E-04

                           Spin 1          
     Orb      H-eigenvalues     Occupancies
       1 |    -0.7184283385    1.0000000000 | 
                          ------
    1276 |    -0.0301154303    0.9999908249 | 
    1277 |    -0.0301151954    0.9999908242 | 
    1278 |    -0.0301136530    0.9999908198 | 
    1279 |    -0.0301120410    0.9999908151 | 
    1280 |    -0.0301114810    0.9999908135 | 
                 - Gap at zero temperature -
    1281 |     0.0434049851    0.0000090124 | 
    1282 |     0.0434060857    0.0000090092 | 
    1283 |     0.0434069432    0.0000090068 | 
    1284 |     0.0434075808    0.0000090050 | 
    1285 |     0.0434080864    0.0000090036 | 
                          ------
    2560 |     0.8352886811    0.0000000000 | 

                       |  Abs_value |  Threshold | Converged
     Delta_Free_energy |   5.60E-05 |   1.00E-06 |        No
     Delta_Energy      |   5.60E-05 |   1.00E-04 |       Yes
     Delta_Entropy     |   2.60E-08 |   1.00E-04 |       Yes
     Commutator        |   4.21E-06 |   1.00E-05 |       Yes
     Delta_Fermi_level |   8.64E-04 |   1.00E-03 |       Yes

  Line search of the free energy minimum:
  Step_type        Step             Free_energy   Predicted_free_energy
.   Initial    0.000000    -3651.32089827215350
.    Trial1    0.447021    -3651.32091431133495
.    Trial2    0.658240    -3651.32089857613528
. Quadratic    0.330497    -3651.32091658863146    -3651.32091658814488

--------------------------------------------------------------------------------
  Iter                              Commutator    Free_energy(A=E-TS)     DeltaA
#    4                          0.000002510397   -3651.32091658863146  -1.83E-05

Step                       =       0.330497226197
Energy                     =   -3651.320890828787
Entropy (-TS)              =      -0.000025759858
[...]
 C   275 -- C   555       -0.10      5.37000
 C   274 -- C   554       -0.10      5.37000
 C   273 -- C   553       -0.10      5.37000
 C   272 -- C   552       -0.10      5.37000
 C   271 -- C   551       -0.10      5.37000
 C   270 -- C   550       -0.10      5.37000
 C   269 -- C   549       -0.10      5.37000
 C   268 -- C   548       -0.10      5.37000
 C   267 -- C   547       -0.10      5.37000
 C   266 -- C   546       -0.10      5.37000
 C   130 -- C   465       -0.10      5.37000
 C   129 -- C   464       -0.10      5.37000
 C   128 -- C   463       -0.10      5.37000
 C   127 -- C   462       -0.10      5.37000
 C   126 -- C   461       -0.10      5.37000
 C   240 -- C   525       -0.10      5.37000
 C   239 -- C   524       -0.10      5.37000
 C   238 -- C   523       -0.10      5.37000
 C   237 -- C   522       -0.10      5.37000
 C   236 -- C   521       -0.10      5.37000
 C    23 -- C   478       -0.10      5.37202
 C    49 -- C   469       -0.10      5.37202
 C    48 -- C   468       -0.10      5.37202
 C    47 -- C   467       -0.10      5.37202
 C    22 -- C   477       -0.10      5.37202
 C    46 -- C   466       -0.10      5.37202
 C    21 -- C   476       -0.10      5.37202
 C    25 -- C   480       -0.10      5.37202
 C    24 -- C   479       -0.10      5.37202
 C    50 -- C   470       -0.10      5.37202
 C    24 -- C   449       -0.10      5.37202
 C     6 -- C   416       -0.10      5.37202
 C    23 -- C   448       -0.10      5.37202
 C    22 -- C   447       -0.10      5.37202
 C    10 -- C   470       -0.10      5.37202
 C     5 -- C   450       -0.10      5.37202
 C    21 -- C   446       -0.10      5.37202
 C    10 -- C   420       -0.10      5.37202
 C     9 -- C   469       -0.10      5.37202
 C     9 -- C   419       -0.10      5.37202
 C     8 -- C   468       -0.10      5.37202
 C     4 -- C   449       -0.10      5.37202
 C     8 -- C   418       -0.10      5.37202
 C     2 -- C   447       -0.10      5.37202
 C     7 -- C   467       -0.10      5.37202
 C     7 -- C   417       -0.10      5.37202
 C     1 -- C   446       -0.10      5.37202
 C     6 -- C   466       -0.10      5.37202
 C    25 -- C   450       -0.10      5.37202
 C     3 -- C   448       -0.10      5.37202
 C   285 -- C   580       -0.10      5.37202
 C   284 -- C   579       -0.10      5.37202
 C   283 -- C   578       -0.10      5.37202
 C   282 -- C   577       -0.10      5.37202
 C   281 -- C   576       -0.10      5.37202
 C   260 -- C   605       -0.10      5.37202
 C   259 -- C   604       -0.10      5.37202
 C   258 -- C   603       -0.10      5.37202
 C   257 -- C   602       -0.10      5.37202
 C   256 -- C   601       -0.10      5.37202
 C   219 -- C   569       -0.10      5.37202
 C   218 -- C   568       -0.10      5.37202
 C   217 -- C   567       -0.10      5.37202
 C   216 -- C   566       -0.10      5.37202
 C    11 -- C   331       -0.10      5.37202
 C   205 -- C   550       -0.10      5.37202
 C   204 -- C   549       -0.10      5.37202
 C   203 -- C   548       -0.10      5.37202
 C   202 -- C   547       -0.10      5.37202
 C   201 -- C   546       -0.10      5.37202
 C    15 -- C   335       -0.10      5.37202
 C    30 -- C   355       -0.10      5.37202
 C    30 -- C   325       -0.10      5.37202
 C    14 -- C   334       -0.10      5.37202
 C    29 -- C   354       -0.10      5.37202
 C    29 -- C   324       -0.10      5.37202
 C   260 -- C   550       -0.10      5.37202
 C   259 -- C   549       -0.10      5.37202
 C    28 -- C   353       -0.10      5.37202
 C   258 -- C   548       -0.10      5.37202
 C   257 -- C   547       -0.10      5.37202
 C   256 -- C   546       -0.10      5.37202
 C    28 -- C   323       -0.10      5.37202
 C    27 -- C   352       -0.10      5.37202
 C    13 -- C   333       -0.10      5.37202
 C   250 -- C   540       -0.10      5.37202
 C   249 -- C   539       -0.10      5.37202
 C   248 -- C   538       -0.10      5.37202
 C   247 -- C   537       -0.10      5.37202
 C   246 -- C   536       -0.10      5.37202
 C    27 -- C   322       -0.10      5.37202
 C    26 -- C   351       -0.10      5.37202
 C    55 -- C   335       -0.10      5.37202
 C    26 -- C   321       -0.10      5.37202
 C    54 -- C   334       -0.10      5.37202
 C    12 -- C   332       -0.10      5.37202
 C    53 -- C   333       -0.10      5.37202
 C   230 -- C   580       -0.10      5.37202
 C   230 -- C   525       -0.10      5.37202
 C   229 -- C   579       -0.10      5.37202
 C   229 -- C   524       -0.10      5.37202
 C   228 -- C   578       -0.10      5.37202
 C    52 -- C   332       -0.10      5.37202
 C   228 -- C   523       -0.10      5.37202
 C   227 -- C   577       -0.10      5.37202
 C   227 -- C   522       -0.10      5.37202
 C   226 -- C   576       -0.10      5.37202
 C   226 -- C   521       -0.10      5.37202
 C    51 -- C   331       -0.10      5.37202
 C   220 -- C   570       -0.10      5.37202
 C   220 -- C   515       -0.10      5.37202
 C   219 -- C   514       -0.10      5.37202
 C   218 -- C   513       -0.10      5.37202
 C   217 -- C   512       -0.10      5.37202
 C   216 -- C   511       -0.10      5.37202
 C    95 -- C   425       -0.10      5.37202
 C    95 -- C   365       -0.10      5.37202
 C    94 -- C   424       -0.10      5.37202
 C    94 -- C   364       -0.10      5.37202
 C    93 -- C   423       -0.10      5.37202
 C   195 -- C   540       -0.10      5.37202
 C   195 -- C   500       -0.10      5.37202
 C    93 -- C   363       -0.10      5.37202
 C   194 -- C   539       -0.10      5.37202
 C    92 -- C   422       -0.10      5.37202
 C   194 -- C   499       -0.10      5.37202
 C   193 -- C   538       -0.10      5.37202
 C   193 -- C   498       -0.10      5.37202
 C    92 -- C   362       -0.10      5.37202
 C   192 -- C   537       -0.10      5.37202
 C    91 -- C   421       -0.10      5.37202
 C   192 -- C   497       -0.10      5.37202
 C   191 -- C   536       -0.10      5.37202
 C   191 -- C   496       -0.10      5.37202
 C    91 -- C   361       -0.10      5.37202
 C    85 -- C   355       -0.10      5.37202
 C   180 -- C   515       -0.10      5.37202
 C    40 -- C   365       -0.10      5.37202
 C    84 -- C   354       -0.10      5.37202
 C   179 -- C   514       -0.10      5.37202
 C    83 -- C   353       -0.10      5.37202
 C   178 -- C   513       -0.10      5.37202
 C   177 -- C   512       -0.10      5.37202
 C    82 -- C   352       -0.10      5.37202
 C    39 -- C   364       -0.10      5.37202
 C   176 -- C   511       -0.10      5.37202
 C    81 -- C   351       -0.10      5.37202
 C    38 -- C   363       -0.10      5.37202
 C    37 -- C   362       -0.10      5.37202
 C    36 -- C   361       -0.10      5.37202
 C    65 -- C   395       -0.10      5.37202
 C    65 -- C   345       -0.10      5.37202
 C    64 -- C   394       -0.10      5.37202
 C    64 -- C   344       -0.10      5.37202
 C    63 -- C   393       -0.10      5.37202
 C    63 -- C   343       -0.10      5.37202
 C    62 -- C   392       -0.10      5.37202
 C    62 -- C   342       -0.10      5.37202
 C    61 -- C   391       -0.10      5.37202
 C    61 -- C   341       -0.10      5.37202
 C   120 -- C   395       -0.10      5.37202
 C    55 -- C   385       -0.10      5.37202
 C   119 -- C   394       -0.10      5.37202
 C   118 -- C   393       -0.10      5.37202
 C   117 -- C   392       -0.10      5.37202
 C    54 -- C   384       -0.10      5.37202
 C   116 -- C   391       -0.10      5.37202
 C    53 -- C   383       -0.10      5.37202
 C    52 -- C   382       -0.10      5.37202
 C    51 -- C   381       -0.10      5.37202
 C   150 -- C   440       -0.10      5.37202
 C   149 -- C   439       -0.10      5.37202
 C   148 -- C   438       -0.10      5.37202
 C   147 -- C   437       -0.10      5.37202
 C   146 -- C   436       -0.10      5.37202
 C   135 -- C   460       -0.10      5.37202
 C   134 -- C   459       -0.10      5.37202
 C   133 -- C   458       -0.10      5.37202
 C   132 -- C   457       -0.10      5.37202
 C   131 -- C   456       -0.10      5.37202
 C   106 -- C   436       -0.10      5.37202
 C   106 -- C   376       -0.10      5.37202
 C    80 -- C   410       -0.10      5.37202
 C    79 -- C   409       -0.10      5.37202
 C    78 -- C   408       -0.10      5.37202
 C    77 -- C   407       -0.10      5.37202
 C    76 -- C   406       -0.10      5.37202
 C   135 -- C   410       -0.10      5.37202
 C   134 -- C   409       -0.10      5.37202
 C   133 -- C   408       -0.10      5.37202
 C   132 -- C   407       -0.10      5.37202
 C   131 -- C   406       -0.10      5.37202
 C   110 -- C   440       -0.10      5.37202
 C   110 -- C   380       -0.10      5.37202
 C   109 -- C   439       -0.10      5.37202
 C   109 -- C   379       -0.10      5.37202
 C   108 -- C   438       -0.10      5.37202
 C   108 -- C   378       -0.10      5.37202
 C   107 -- C   437       -0.10      5.37202
 C   107 -- C   377       -0.10      5.37202
 C   215 -- C   635       -0.10      5.38000
 C   214 -- C   634       -0.10      5.38000
 C   213 -- C   633       -0.10      5.38000
 C   212 -- C   632       -0.10      5.38000
 C   211 -- C   631       -0.10      5.38000
 C   190 -- C   620       -0.10      5.38000
 C   189 -- C   619       -0.10      5.38000
 C   188 -- C   618       -0.10      5.38000
 C   187 -- C   617       -0.10      5.38000
 C   186 -- C   616       -0.10      5.38000
 C   175 -- C   595       -0.10      5.38000
 C   174 -- C   594       -0.10      5.38000
 C   173 -- C   593       -0.10      5.38000
 C   172 -- C   592       -0.10      5.38000
 C   171 -- C   591       -0.10      5.38000
 C   245 -- C   640       -0.10      5.38000
 C   244 -- C   639       -0.10      5.38000
 C   243 -- C   638       -0.10      5.38000
 C   242 -- C   637       -0.10      5.38000
 C   241 -- C   636       -0.10      5.38000
==================================================


=================== Orbital energy and occupancy information ===================

      Total number of orbitals:    2560
        Occupancy sum (kernel):    1280.000000000
   Occupancy sum (eigenvalues):    1280.000000000
                 HOMO-LUMO gap:       0.000003725 Eh
                 Mid-gap level:       0.132174112 Eh

                        Orbital | Energy (Eh) | Occupancy
                            1    -0.622531210   1.0000000
                        .......   ...........   .........
                         1272     0.059159454   0.9999907
                         1273     0.059198855   0.9999905
                         1274     0.059202001   0.9999905
                         1275     0.059253228   0.9999904
                         1276     0.059551902   0.9999894
                         1277     0.059555169   0.9999894
                         1278     0.059666249   0.9999890
                         1279     0.059669401   0.9999890
                         1280     0.059720804   0.9999889
                         1281     0.132172250   0.0000104
                        ....... -- gap at 0K -- .........
                         1282     0.132175975   0.0000104
                         1283     0.132176813   0.0000104
                         1284     0.132178621   0.0000104
                         1285     0.132180294   0.0000104
                         1286     0.132426299   0.0000096
                         1287     0.132429954   0.0000096
                         1288     0.132430850   0.0000096
                         1289     0.132432527   0.0000096
                         1290     0.132434268   0.0000096
                         1291     0.132631992   0.0000090
                        .......   ...........   .........
                         2560     0.991997946   0.0000000

================================================================================

===================== Writing canonical molecular orbitals =====================
| Orbital  Energy (eV)  Norm     |
| HOMO      3.59658993  1.000000 | Writing "5.500496_GO_manual_4x64graphite_HOMO.cube" ... done
Writing "5.500496_GO_manual_4x64graphite_HOMO.dx" ... done
| LUMO      3.59669128  1.000000 | Writing "5.500496_GO_manual_4x64graphite_LUMO.cube" ... done
Writing "5.500496_GO_manual_4x64graphite_LUMO.dx" ... done
================================================================================
 
===================== Density of States (DOS) calculation ======================
Writing "5.500496_GO_manual_4x64graphite_DOS.txt" ...  done
================================================================================
 
Writing bands to file "5.500496_GO_manual_4x64graphite.val_bands" ... done
 
================ Projected Density of States (pDOS) calculation ================
 
Constructing AM resolved functions  ...... done
Writing NGWF plot files in formats: CUBE DX ...  done
 
Performing overlap integrals ...  done
 
Computing pDOS weights ...  done
 
All bands spilling parameter =   2.49 %
Occupancy-weighted spilling parameter =   1.02 %
 
 => Outputting data for OptaDOS <=
 
Writing pDOS weights to file "5.500496_GO_manual_4x64graphite.val_pdos_bin" ... done
 
Writing band gradients to file "5.500496_GO_manual_4x64graphite.val_dome_bin" ... done
 
Writing Castep output cell file to "5.500496_GO_manual_4x64graphite-out.cell" ... done
 
 => Computing Gaussian smeared pDOS <= 
Writing "5.500496_GO_manual_4x64graphite_PDOS.txt" ...  done
 
 => Computing Occupancy-weighted Gaussian smeared pDOS <= 
Writing "5.500496_GO_manual_4x64graphite_occ_PDOS.txt" ...  done
  => Band centres: 
 S band centre of group 1:  -15.679802 eV
 P band centre of group 1:   -8.522007 eV
  Band centres done. <=
  => Integrated number of electrons in each AM band: 
 S num electrons of group 1:  577.067572
 P num electrons of group 1: 1956.772041
  Integrated number of electrons done. <=
================================================================================

------------------------------ TIMING INFORMATION ------------------------------
AVERAGE TIME:    2168.988s on     40 node(s)                                    
TOTAL TIME:      2168.989s on     40 node(s)                                    
================= AVERAGE TIMINGS FROM ALL NODES (CUMULATIVE) ==================
|| TAG                                    #calls    cpu time   %total  Gflops ||
|| work_imbalance                       :     1        0.00s   0.000%  ------ ||
|| paw_tcore_hartree_on_grid            :     1        0.01s   0.000%  ------ ||
|| paw_tcore_density                    :     1        0.01s   0.000%  ------ ||
|| paw_sphere_density_on_grid           :     1        0.01s   0.001%  ------ ||
|| sparse_set_to_garbage                :   123        0.01s   0.001%  ------ ||
|| paw_dij_hartree                      :   254        0.03s   0.001%  ------ ||
|| basis_extract_function_from_box      :  1408        0.06s   0.003%  ------ ||
|| pseudo_make_structure_factor         :     1        0.08s   0.004%  ------ ||
|| paw_species_calc_proj_prec_mat       :     1        0.12s   0.006%  ------ ||
|| paw_dataset_init                     :     1        0.15s   0.007%  ------ ||
|| density_init_guess_real              :     1        0.17s   0.008%  ------ ||
|| ngwfs_initialise_from_radial         :     2        0.67s   0.031%  ------ ||
|| sparse_init                          :     1        0.72s   0.033%  ------ ||
|| restart_kernel_write                 :    12        0.73s   0.034%  ------ ||
|| dense_normal_eigensolve              :     1        1.10s   0.051%  ------ ||
|| hartree_on_grid                      :   193        1.98s   0.091%  ------ ||
|| projectors_init_fftbox_recip         :   111        2.23s   0.103%  ------ ||
|| fourier_apply_box_pair               :  2080        3.44s   0.159% 560.219 ||
|| basis_copy_function_to_box           : 18240        3.92s   0.181%  ------ ||
|| augmentation_screen_dij              :   198        4.27s   0.197%  ------ ||
|| sparse_embed_hotelling_invert_embed  :    21        6.23s   0.287%  ------ ||
|| sparse_trace                         :  2302        6.67s   0.308%  ------ ||
|| ngwf_gradient_coeffs                 :    11        6.67s   0.308%  ------ ||
|| ewald_calculate_energy               :     1        6.73s   0.310%  ------ ||
|| sw_init                              :     1        6.73s   0.310%  ------ ||
|| cell_grid_deposit_box_real           : 24880       14.46s   0.667%  ------ ||
|| paw_dij_xc                           :   254       16.79s   0.774%  ------ ||
|| cell_grid_extract_box_real           :  7660       18.47s   0.851%  ------ ||
|| fourier_apply_cell_forward           :  5569       20.39s   0.940%  54.375 ||
|| fourier_apply_cell_backward          :  5954       20.50s   0.945%  57.833 ||
|| aug_nonlocal_mat                     :   243       21.38s   0.986%  ------ ||
|| projectors_func_ovlp_box             :    22       25.21s   1.162%  ------ ||
|| function_ops_brappd_ketppd           :    44       25.29s   1.166%  ------ ||
|| density_fftbox_deposit_to_cell       : 12352       28.68s   1.322%  ------ ||
|| augmentation_density_on_grid         :   193       30.46s   1.404%  ------ ||
|| hamiltonian_energy_components        :     3       36.02s   1.661%  ------ ||
|| integrals_kinetic                    :    21       45.33s   2.090%  ------ ||
|| eigenstates_pdos                     :     1       51.67s   2.382%  ------ ||
|| eigenstates_calculate                :     1       56.82s   2.620%  ------ ||
|| xc_energy_potential                  :   192       78.27s   3.608%  ------ ||
|| dense_eigensolve                     :   168       82.26s   3.792%  ------ ||
|| sparse_product                       :  2337       82.40s   3.799%  ------ ||
|| nlxc_vdw_energy                      :   384       83.05s   3.829%  ------ ||
|| projectors_gradient_batch            :    44       90.16s   4.157%  ------ ||
|| potential_apply_to_ngwf_batch        :   236       90.43s   4.169%  ------ ||
|| basis_dot_function_with_box          : 3.455M      94.00s   4.334%  ------ ||
|| restart_ngwfs_tightbox_output        :    10      111.10s   5.122%  ------ ||
|| properties_calculate                 :     1      114.16s   5.263%  ------ ||
|| integrals_locpot_mat_els_batch       :   236      130.27s   6.006%  ------ ||
|| projectors_grad_precond_batch        :    44      133.06s   6.135%  ------ ||
|| fourier_apply_box                    : 57616      178.85s   8.246% 976.529 ||
|| edft_diag_ngwf_ham                   :   167      184.90s   8.525%  ------ ||
|| integrals_locpot_dbl_grid            :    59      221.49s  10.211%  ------ ||
|| density_fftbox_interpolate_multiply  : 12352      239.28s  11.032%  ------ ||
|| ngwf_gradient_build_batch            :    44      256.48s  11.825%  ------ ||
|| basis_add_function_to_box            : 10.44M     273.25s  12.598%  ------ ||
|| density_batch_interp_deposit         :   772      295.12s  13.606%  ------ ||
|| edft_apply_smearing_operator         :   167      360.01s  16.598%  ------ ||
|| ngwf_gradient_batch                  :    44      364.56s  16.808%  ------ ||
|| density_batch_row_sums               :   772      374.60s  17.271%  ------ ||
|| ngwf_gradient_lnv                    :    11      378.57s  17.454%  ------ ||
|| density_on_dbl_grid                  :   193      681.61s  31.425%  ------ ||
|| hamiltonian_lhxc_calculate           :   188      773.79s  35.675%  ------ ||
|| edft_calculate                       :    11     1343.60s  61.946%  ------ ||
|| ngwf_cg_optimise                     :     1     2029.87s  93.586%  ------ ||
|| total_time                           :     1     2168.99s 100.000%  ------ ||
================================================================================
Overhead of generating timer report: 
- 0 ms averaging over threads,
- 5 ms ensuring consistency across MPI ranks,
- 0 ms printing in order.

Job completed: 09-03-2020 13:29 (-0000)

