 +---------------------------------------------------------------+
 |                                                               |
 |        ####### #     # ####### ####### ####### ######         |
 |        #     # ##    # #          #    #       #     #        |
 |        #     # # #   # #          #    #       #     #        |
 |        #     # #  #  # #####      #    #####   ######         |
 |        #     # #   # # #          #    #       #              |
 |        #     # #    ## #          #    #       #              |
 |        ####### #     # #######    #    ####### #              |
 |                                                               |
 |        Linear-Scaling Ab Initio Total Energy Program          |
 |                                                               |
 |          Release for academic collaborators of ODG            |
 |                                             Version 5.3.2.12  |
 |                                                               |
 +---------------------------------------------------------------+
 |                                                               |
 |  Authors:                                                     |
 |  Jacek Dziedzic, Peter D. Haynes, Nicholas D. M. Hine,        |
 |  Arash. A. Mostofi, Mike C. Payne and Chris-Kriton Skylaris   |
 |                                                               |
 |  Contributors:                                                |
 |  J. Aarons, L. Andrinopoulos, P. W. Avraam, R. A. Bell,       |
 |  A. Bhandari, G. A. Bramley, R. J. Charlton, S. J. Clark,     |
 |  R. J. Clements, G. C. Constantinescu, F. Corsetti,           |
 |  N. Corsini, O. Dieguez, S. M. M. Dubois, K. K. B. Duff,      |
 |  J. M. Escartin, A. Greco, H. Helal, Q. O. Hill, L. P. Lee,   |
 |  J.-H. Li, E. B. Linscott, G. Moynihan, D. D. O`Regan,        |
 |  O. K. Okan, M. J. S. Phipps, C. J. Pickard,                  |
 |  J. C. A. Prentice, M. I. J. Probert, L. E. Ratcliff,         |
 |  M. Robinson, A. Ruiz Serrano, J. S. Spencer, E. W. Tait,     |
 |  G. Teobaldi, D. Turban, V. Vitale, K. A. Wilkinson,          |
 |  C. Weber, J. C. Womack, N. Yeung and T. J. Zuehlsdorff       |
 |                                                               |
 |                                   Copyright (c) 2004-2020     |
 |                                                               |
 |  Please cite:                                                 |
 |  "Introducing ONETEP: Linear-scaling density functional       |
 |   simulations on parallel computers".                         |
 |   C.-K. Skylaris, P. D. Haynes, A. A. Mostofi, M. C. Payne.   |
 |   J. Chem. Phys. 122 084119 (2005).                           |
 |                                                               |
 |          in all publications arising from your use of ONETEP. |
 |                                                               |
 +---------------------------------------------------------------+
 |                                                               |
 |   ONETEP is based on developments described in the following  |
 |   publications:                                               |
 |                                                               |
 |  "Nonorthogonal generalized Wannier function pseudopotential  |
 |   plane-wave method".                                         |
 |   C.-K. Skylaris, A. A. Mostofi, P. D. Haynes, O. Dieguez,    |
 |   M. C. Payne.                                                |
 |   Phys. Rev. B 66 035119 (2002).                              |
 |                                                               |
 |  "Preconditioned iterative minimization for linear-scaling    |
 |   electronic structure calculations".                         |
 |   A. A. Mostofi, P. D. Haynes, C.-K. Skylaris, M. C. Payne.   |
 |   J. Chem. Phys. 119(17), pp.8842-8848 (2003).                |
 |                                                               |
 |  "Total-energy calculations on a real space grid with         |
 |   localized functions and a plane-wave basis".                |
 |   A. A. Mostofi, C.-K. Skylaris, P. D. Haynes, M. C. Payne.   |
 |   Comput. Phys. Commun. 147, pp.788-802 (2002).               |
 |                                                               |
 |  "Accurate kinetic energy evaluation in electronic structure  |
 |   calculations with localized functions on real space grids"  |
 |   C.-K. Skylaris, A. A. Mostofi, P. D. Haynes, C. J. Pickard, |
 |   M. C. Payne.                                                |
 |   Comput. Phys. Commun. 140, pp.315-322 (2001).               |
 |                                                               |
 |  "Accurate ionic forces and geometry optimization in linear-  |
 |   scaling density-functional theory with local orbitals"      |
 |   N. D. M. Hine, M. Robinson, P. D. Haynes, C.-K. Skylaris,   |
 |   M. C. Payne, and A. A. Mostofi.                             |
 |   Phys. Rev. B 83 195102 (2011).                              |
 |                                                               |
 +---------------------------------------------------------------+

Job started: 09-03-2020 14:23 (-0000)
 
Reading parameters from file "6.03712_GO_manual_4x64graphite.dat" ...

WARNING: "cutoff_energy" not specified, but "psinc_spacing" specified.
         Using the latter to set the KE cutoff energy to  732.32021eV,
         thus *overriding* the default.

... done

If your calculation crashes here, before "Checking processes and threads..."
is displayed, then your stack size is insufficient.
If so, use "ulimit -s unlimited" at runtime.
You can disable this check with "check_stack_size F".

Checking processes and threads...
   Determining the default number of threads...
      No default threads set at compilation time: defaulting to 1.
      OpenMP library call suggests 4 threads.
      Hybrid MPI-OpenMP compilation detected.
      Number of MPI processes > 1.
      OMP_NUM_THREADS environment variable present and
      its value matches the one obtained from the OpenMP library call.
      Using this value as default.
      Default threads: 4
      Default applies to threads_max and threads_num_fftboxes.
      Settings in the input file override this default.
   ... done

   Running with 40 MPI processes.
   There are 10 MPI processes running on the same node as the root process.
   Each MPI process is using: 
               1 threads for simulation cell FFTs.
               1 threads for parallel FFT box operations.
               4 threads for loops over batched FFT box operations.
               4 threads in other parallel regions.
... done

Basic input checks...
Resetting ngwf_cg_rotate to TRUE for EDFT calculations
... done

Reading geometry and species blocks from file "6.03712_GO_manual_4x64graphite.dat" ...
    
  PSINC grid spacing along a1 set to   0.511215680000a0 from input file.
  PSINC grid spacing along a2 set to   0.531284090000a0 from input file.
  PSINC grid spacing along a3 set to   0.507045630000a0 from input file.
  Number of PPD points along a3 set to 1.  This is 
  the default value, it may have been provided also in the input file.
... done
 Writing xyz coordinates to file "6.03712_GO_manual_4x64graphite.xyz" ... done


--------------------------------------------------------------------------------
---------------------------------- INPUT FILE ----------------------------------
--------------------------------------------------------------------------------

task : singlepoint                                                              
do_properties : true                                                            
dx_format T                                                                     
edft T                                                                          
output_detail VERBOSE                                                           
write_xyz T                                                                     
xc_functional VDWDF                                                             
PSINC_SPACING 0.51121568 0.53128409 0.50704563                                  
paw T                                                                           
pdos_max_l = 2                                                                  
dos_smear  0.1 eV                                                               
popn_calculate T                                                                
PDOS_PSEUDOATOMIC T                                                             
PDOS_REDUCE_SWS F                                                               
PDOS_CONSTRUCT_BASIS F                                                          
PDOS_LOWDIN T                                                                   
PDOS_ORTH_ATOM_BLOCKS F                                                         
PDOS_LCAO_OPTIMIZE F                                                            
pdos_optados_output T                                                           
homo_plot 0                                                                     
lumo_plot 0                                                                     
homo_dens_plot -1                                                               
lumo_dens_plot -1                                                               
%BLOCK SPECIES                                                                  
C C 6 4 9.0                                                                     
%ENDBLOCK SPECIES                                                               
%BLOCK SPECIES_POT                                                              
C "~/pp/paw/c_pbe_abinit.paw"                                                   
%ENDBLOCK SPECIES_POT                                                           
%BLOCK SPECIES_ATOMIC_SET                                                       
C "SOLVE conf=2s2 2p2"                                                          
%ENDBLOCK SPECIES_ATOMIC_SET                                                    
%BLOCK LATTICE_CART                                                             
32.21  0.00  0.00                                                               
0.00 18.59  0.00                                                                
0.00  0.00 114.09                                                               
%ENDBLOCK LATTICE_CART                                                          
%BLOCK POSITIONS_ABS                                                            
C  0.00  0.00  5.70                                                             
C  0.00  0.00 28.52                                                             
C  0.00  0.00 51.34                                                             
C  0.00  0.00 74.16                                                             
C  0.00  0.00 96.97                                                             
C  0.00  4.65  5.70                                                             
C  0.00  4.65 28.52                                                             
C  0.00  4.65 51.34                                                             
C  0.00  4.65 74.16                                                             
C  0.00  4.65 96.97                                                             
C  4.03  2.32  5.70                                                             
C  4.03  2.32 28.52                                                             
C  4.03  2.32 51.34                                                             
C  4.03  2.32 74.16                                                             
C  4.03  2.32 96.97                                                             
C  8.05  0.00  5.70                                                             
C  8.05  0.00 28.52                                                             
C  8.05  0.00 51.34                                                             
C  8.05  0.00 74.16                                                             
C  8.05  0.00 96.97                                                             
C  0.00  9.30  5.70                                                             
C  0.00  9.30 28.52                                                             
C  0.00  9.30 51.34                                                             
C  0.00  9.30 74.16                                                             
C  0.00  9.30 96.97                                                             
C  4.03  6.97  5.70                                                             
C  4.03  6.97 28.52                                                             
C  4.03  6.97 51.34                                                             
C  4.03  6.97 74.16                                                             
C  4.03  6.97 96.97                                                             
C  8.05  4.65  5.70                                                             
C  8.05  4.65 28.52                                                             
C  8.05  4.65 51.34                                                             
C  8.05  4.65 74.16                                                             
C  8.05  4.65 96.97                                                             
C 12.08  2.32  5.70                                                             
C 12.08  2.32 28.52                                                             
C 12.08  2.32 51.34                                                             
C 12.08  2.32 74.16                                                             
C 12.08  2.32 96.97                                                             
C 16.10  0.00  5.70                                                             
C 16.10  0.00 28.52                                                             
C 16.10  0.00 51.34                                                             
C 16.10  0.00 74.16                                                             
C 16.10  0.00 96.97                                                             
C  0.00 13.95  5.70                                                             
C  0.00 13.95 28.52                                                             
C  0.00 13.95 51.34                                                             
C  0.00 13.95 74.16                                                             
C  0.00 13.95 96.97                                                             
C  4.03 11.62  5.70                                                             
C  4.03 11.62 28.52                                                             
C  4.03 11.62 51.34                                                             
C  4.03 11.62 74.16                                                             
C  4.03 11.62 96.97                                                             
C  8.05  9.30  5.70                                                             
C  8.05  9.30 28.52                                                             
C  8.05  9.30 51.34                                                             
C  8.05  9.30 74.16                                                             
C  8.05  9.30 96.97                                                             
C 12.08  6.97  5.70                                                             
C 12.08  6.97 28.52                                                             
C 12.08  6.97 51.34                                                             
C 12.08  6.97 74.16                                                             
C 12.08  6.97 96.97                                                             
C 16.10  4.65  5.70                                                             
C 16.10  4.65 28.52                                                             
C 16.10  4.65 51.34                                                             
C 16.10  4.65 74.16                                                             
C 16.10  4.65 96.97                                                             
C 20.13  2.32  5.70                                                             
C 20.13  2.32 28.52                                                             
C 20.13  2.32 51.34                                                             
C 20.13  2.32 74.16                                                             
C 20.13  2.32 96.97                                                             
C 24.16  0.00  5.70                                                             
C 24.16  0.00 28.52                                                             
C 24.16  0.00 51.34                                                             
C 24.16  0.00 74.16                                                             
C 24.16  0.00 96.97                                                             
C  4.03 16.27  5.70                                                             
C  4.03 16.27 28.52                                                             
C  4.03 16.27 51.34                                                             
C  4.03 16.27 74.16                                                             
C  4.03 16.27 96.97                                                             
C  8.05 13.95  5.70                                                             
C  8.05 13.95 28.52                                                             
C  8.05 13.95 51.34                                                             
C  8.05 13.95 74.16                                                             
C  8.05 13.95 96.97                                                             
C 12.08 11.62  5.70                                                             
C 12.08 11.62 28.52                                                             
C 12.08 11.62 51.34                                                             
C 12.08 11.62 74.16                                                             
C 12.08 11.62 96.97                                                             
C 16.10  9.30  5.70                                                             
C 16.10  9.30 28.52                                                             
C 16.10  9.30 51.34                                                             
C 16.10  9.30 74.16                                                             
C 16.10  9.30 96.97                                                             
C 20.13  6.97  5.70                                                             
C 20.13  6.97 28.52                                                             
C 20.13  6.97 51.34                                                             
C 20.13  6.97 74.16                                                             
C 20.13  6.97 96.97                                                             
C 24.16  4.65  5.70                                                             
C 24.16  4.65 28.52                                                             
C 24.16  4.65 51.34                                                             
C 24.16  4.65 74.16                                                             
C 24.16  4.65 96.97                                                             
C 28.18  2.32  5.70                                                             
C 28.18  2.32 28.52                                                             
C 28.18  2.32 51.34                                                             
C 28.18  2.32 74.16                                                             
C 28.18  2.32 96.97                                                             
C 12.08 16.27  5.70                                                             
C 12.08 16.27 28.52                                                             
C 12.08 16.27 51.34                                                             
C 12.08 16.27 74.16                                                             
C 12.08 16.27 96.97                                                             
C 16.10 13.95  5.70                                                             
C 16.10 13.95 28.52                                                             
C 16.10 13.95 51.34                                                             
C 16.10 13.95 74.16                                                             
C 16.10 13.95 96.97                                                             
C 20.13 11.62  5.70                                                             
C 20.13 11.62 28.52                                                             
C 20.13 11.62 51.34                                                             
C 20.13 11.62 74.16                                                             
C 20.13 11.62 96.97                                                             
C 24.16  9.30  5.70                                                             
C 24.16  9.30 28.52                                                             
C 24.16  9.30 51.34                                                             
C 24.16  9.30 74.16                                                             
C 24.16  9.30 96.97                                                             
C 28.18  6.97  5.70                                                             
C 28.18  6.97 28.52                                                             
C 28.18  6.97 51.34                                                             
C 28.18  6.97 74.16                                                             
C 28.18  6.97 96.97                                                             
C 20.13 16.27  5.70                                                             
C 20.13 16.27 28.52                                                             
C 20.13 16.27 51.34                                                             
C 20.13 16.27 74.16                                                             
C 20.13 16.27 96.97                                                             
C 24.16 13.95  5.70                                                             
C 24.16 13.95 28.52                                                             
C 24.16 13.95 51.34                                                             
C 24.16 13.95 74.16                                                             
C 24.16 13.95 96.97                                                             
C 28.18 11.62  5.70                                                             
C 28.18 11.62 28.52                                                             
C 28.18 11.62 51.34                                                             
C 28.18 11.62 74.16                                                             
C 28.18 11.62 96.97                                                             
C 28.18 16.27  5.70                                                             
C 28.18 16.27 28.52                                                             
C 28.18 16.27 51.34                                                             
C 28.18 16.27 74.16                                                             
C 28.18 16.27 96.97                                                             
C  0.00  0.00 17.11                                                             
C  0.00  0.00 39.93                                                             
C  0.00  0.00 62.75                                                             
C  0.00  0.00 85.56                                                             
C  0.00  0.00 108.38                                                            
C  0.00  4.65 17.11                                                             
C  0.00  4.65 39.93                                                             
C  0.00  4.65 62.75                                                             
C  0.00  4.65 85.56                                                             
C  0.00  4.65 108.38                                                            
C  4.03  2.32 17.11                                                             
C  4.03  2.32 39.93                                                             
C  4.03  2.32 62.75                                                             
C  4.03  2.32 85.56                                                             
C  4.03  2.32 108.38                                                            
C  8.05  0.00 17.11                                                             
C  8.05  0.00 39.93                                                             
C  8.05  0.00 62.75                                                             
C  8.05  0.00 85.56                                                             
C  8.05  0.00 108.38                                                            
C  0.00  9.30 17.11                                                             
C  0.00  9.30 39.93                                                             
C  0.00  9.30 62.75                                                             
C  0.00  9.30 85.56                                                             
C  0.00  9.30 108.38                                                            
C  4.03  6.97 17.11                                                             
C  4.03  6.97 39.93                                                             
C  4.03  6.97 62.75                                                             
C  4.03  6.97 85.56                                                             
C  4.03  6.97 108.38                                                            
C  8.05  4.65 17.11                                                             
C  8.05  4.65 39.93                                                             
C  8.05  4.65 62.75                                                             
C  8.05  4.65 85.56                                                             
C  8.05  4.65 108.38                                                            
C 12.08  2.32 17.11                                                             
C 12.08  2.32 39.93                                                             
C 12.08  2.32 62.75                                                             
C 12.08  2.32 85.56                                                             
C 12.08  2.32 108.38                                                            
C 16.10  0.00 17.11                                                             
C 16.10  0.00 39.93                                                             
C 16.10  0.00 62.75                                                             
C 16.10  0.00 85.56                                                             
C 16.10  0.00 108.38                                                            
C  0.00 13.95 17.11                                                             
C  0.00 13.95 39.93                                                             
C  0.00 13.95 62.75                                                             
C  0.00 13.95 85.56                                                             
C  0.00 13.95 108.38                                                            
C  4.03 11.62 17.11                                                             
C  4.03 11.62 39.93                                                             
C  4.03 11.62 62.75                                                             
C  4.03 11.62 85.56                                                             
C  4.03 11.62 108.38                                                            
C  8.05  9.30 17.11                                                             
C  8.05  9.30 39.93                                                             
C  8.05  9.30 62.75                                                             
C  8.05  9.30 85.56                                                             
C  8.05  9.30 108.38                                                            
C 12.08  6.97 17.11                                                             
C 12.08  6.97 39.93                                                             
C 12.08  6.97 62.75                                                             
C 12.08  6.97 85.56                                                             
C 12.08  6.97 108.38                                                            
C 16.10  4.65 17.11                                                             
C 16.10  4.65 39.93                                                             
C 16.10  4.65 62.75                                                             
C 16.10  4.65 85.56                                                             
C 16.10  4.65 108.38                                                            
C 20.13  2.32 17.11                                                             
C 20.13  2.32 39.93                                                             
C 20.13  2.32 62.75                                                             
C 20.13  2.32 85.56                                                             
C 20.13  2.32 108.38                                                            
C 24.16  0.00 17.11                                                             
C 24.16  0.00 39.93                                                             
C 24.16  0.00 62.75                                                             
C 24.16  0.00 85.56                                                             
C 24.16  0.00 108.38                                                            
C  4.03 16.27 17.11                                                             
C  4.03 16.27 39.93                                                             
C  4.03 16.27 62.75                                                             
C  4.03 16.27 85.56                                                             
C  4.03 16.27 108.38                                                            
C  8.05 13.95 17.11                                                             
C  8.05 13.95 39.93                                                             
C  8.05 13.95 62.75                                                             
C  8.05 13.95 85.56                                                             
C  8.05 13.95 108.38                                                            
C 12.08 11.62 17.11                                                             
C 12.08 11.62 39.93                                                             
C 12.08 11.62 62.75                                                             
C 12.08 11.62 85.56                                                             
C 12.08 11.62 108.38                                                            
C 16.10  9.30 17.11                                                             
C 16.10  9.30 39.93                                                             
C 16.10  9.30 62.75                                                             
C 16.10  9.30 85.56                                                             
C 16.10  9.30 108.38                                                            
C 20.13  6.97 17.11                                                             
C 20.13  6.97 39.93                                                             
C 20.13  6.97 62.75                                                             
C 20.13  6.97 85.56                                                             
C 20.13  6.97 108.38                                                            
C 24.16  4.65 17.11                                                             
C 24.16  4.65 39.93                                                             
C 24.16  4.65 62.75                                                             
C 24.16  4.65 85.56                                                             
C 24.16  4.65 108.38                                                            
C 28.18  2.32 17.11                                                             
C 28.18  2.32 39.93                                                             
C 28.18  2.32 62.75                                                             
C 28.18  2.32 85.56                                                             
C 28.18  2.32 108.38                                                            
C 12.08 16.27 17.11                                                             
C 12.08 16.27 39.93                                                             
C 12.08 16.27 62.75                                                             
C 12.08 16.27 85.56                                                             
C 12.08 16.27 108.38                                                            
C 16.10 13.95 17.11                                                             
C 16.10 13.95 39.93                                                             
C 16.10 13.95 62.75                                                             
C 16.10 13.95 85.56                                                             
C 16.10 13.95 108.38                                                            
C 20.13 11.62 17.11                                                             
C 20.13 11.62 39.93                                                             
C 20.13 11.62 62.75                                                             
C 20.13 11.62 85.56                                                             
C 20.13 11.62 108.38                                                            
C 24.16  9.30 17.11                                                             
C 24.16  9.30 39.93                                                             
C 24.16  9.30 62.75                                                             
C 24.16  9.30 85.56                                                             
C 24.16  9.30 108.38                                                            
C 28.18  6.97 17.11                                                             
C 28.18  6.97 39.93                                                             
C 28.18  6.97 62.75                                                             
C 28.18  6.97 85.56                                                             
C 28.18  6.97 108.38                                                            
C 20.13 16.27 17.11                                                             
C 20.13 16.27 39.93                                                             
C 20.13 16.27 62.75                                                             
C 20.13 16.27 85.56                                                             
C 20.13 16.27 108.38                                                            
C 24.16 13.95 17.11                                                             
C 24.16 13.95 39.93                                                             
C 24.16 13.95 62.75                                                             
C 24.16 13.95 85.56                                                             
C 24.16 13.95 108.38                                                            
C 28.18 11.62 17.11                                                             
C 28.18 11.62 39.93                                                             
C 28.18 11.62 62.75                                                             
C 28.18 11.62 85.56                                                             
C 28.18 11.62 108.38                                                            
C 28.18 16.27 17.11                                                             
C 28.18 16.27 39.93                                                             
C 28.18 16.27 62.75                                                             
C 28.18 16.27 85.56                                                             
C 28.18 16.27 108.38                                                            
C  1.34  2.32  5.70                                                             
C  1.34  2.32 28.52                                                             
C  1.34  2.32 51.34                                                             
C  1.34  2.32 74.16                                                             
C  1.34  2.32 96.97                                                             
C  5.37  0.00  5.70                                                             
C  5.37  0.00 28.52                                                             
C  5.37  0.00 51.34                                                             
C  5.37  0.00 74.16                                                             
C  5.37  0.00 96.97                                                             
C  1.34  6.97  5.70                                                             
C  1.34  6.97 28.52                                                             
C  1.34  6.97 51.34                                                             
C  1.34  6.97 74.16                                                             
C  1.34  6.97 96.97                                                             
C  5.37  4.65  5.70                                                             
C  5.37  4.65 28.52                                                             
C  5.37  4.65 51.34                                                             
C  5.37  4.65 74.16                                                             
C  5.37  4.65 96.97                                                             
C  9.39  2.32  5.70                                                             
C  9.39  2.32 28.52                                                             
C  9.39  2.32 51.34                                                             
C  9.39  2.32 74.16                                                             
C  9.39  2.32 96.97                                                             
C 13.42  0.00  5.70                                                             
C 13.42  0.00 28.52                                                             
C 13.42  0.00 51.34                                                             
C 13.42  0.00 74.16                                                             
C 13.42  0.00 96.97                                                             
C  1.34 11.62  5.70                                                             
C  1.34 11.62 28.52                                                             
C  1.34 11.62 51.34                                                             
C  1.34 11.62 74.16                                                             
C  1.34 11.62 96.97                                                             
C  5.37  9.30  5.70                                                             
C  5.37  9.30 28.52                                                             
C  5.37  9.30 51.34                                                             
C  5.37  9.30 74.16                                                             
C  5.37  9.30 96.97                                                             
C  9.39  6.97  5.70                                                             
C  9.39  6.97 28.52                                                             
C  9.39  6.97 51.34                                                             
C  9.39  6.97 74.16                                                             
C  9.39  6.97 96.97                                                             
C 13.42  4.65  5.70                                                             
C 13.42  4.65 28.52                                                             
C 13.42  4.65 51.34                                                             
C 13.42  4.65 74.16                                                             
C 13.42  4.65 96.97                                                             
C 17.45  2.32  5.70                                                             
C 17.45  2.32 28.52                                                             
C 17.45  2.32 51.34                                                             
C 17.45  2.32 74.16                                                             
C 17.45  2.32 96.97                                                             
C 21.47  0.00  5.70                                                             
C 21.47  0.00 28.52                                                             
C 21.47  0.00 51.34                                                             
C 21.47  0.00 74.16                                                             
C 21.47  0.00 96.97                                                             
C  1.34 16.27  5.70                                                             
C  1.34 16.27 28.52                                                             
C  1.34 16.27 51.34                                                             
C  1.34 16.27 74.16                                                             
C  1.34 16.27 96.97                                                             
C  5.37 13.95  5.70                                                             
C  5.37 13.95 28.52                                                             
C  5.37 13.95 51.34                                                             
C  5.37 13.95 74.16                                                             
C  5.37 13.95 96.97                                                             
C  9.39 11.62  5.70                                                             
C  9.39 11.62 28.52                                                             
C  9.39 11.62 51.34                                                             
C  9.39 11.62 74.16                                                             
C  9.39 11.62 96.97                                                             
C 13.42  9.30  5.70                                                             
C 13.42  9.30 28.52                                                             
C 13.42  9.30 51.34                                                             
C 13.42  9.30 74.16                                                             
C 13.42  9.30 96.97                                                             
C 17.45  6.97  5.70                                                             
C 17.45  6.97 28.52                                                             
C 17.45  6.97 51.34                                                             
C 17.45  6.97 74.16                                                             
C 17.45  6.97 96.97                                                             
C 21.47  4.65  5.70                                                             
C 21.47  4.65 28.52                                                             
C 21.47  4.65 51.34                                                             
C 21.47  4.65 74.16                                                             
C 21.47  4.65 96.97                                                             
C 25.50  2.32  5.70                                                             
C 25.50  2.32 28.52                                                             
C 25.50  2.32 51.34                                                             
C 25.50  2.32 74.16                                                             
C 25.50  2.32 96.97                                                             
C 29.52  0.00  5.70                                                             
C 29.52  0.00 28.52                                                             
C 29.52  0.00 51.34                                                             
C 29.52  0.00 74.16                                                             
C 29.52  0.00 96.97                                                             
C  9.39 16.27  5.70                                                             
C  9.39 16.27 28.52                                                             
C  9.39 16.27 51.34                                                             
C  9.39 16.27 74.16                                                             
C  9.39 16.27 96.97                                                             
C 13.42 13.95  5.70                                                             
C 13.42 13.95 28.52                                                             
C 13.42 13.95 51.34                                                             
C 13.42 13.95 74.16                                                             
C 13.42 13.95 96.97                                                             
C 17.45 11.62  5.70                                                             
C 17.45 11.62 28.52                                                             
C 17.45 11.62 51.34                                                             
C 17.45 11.62 74.16                                                             
C 17.45 11.62 96.97                                                             
C 21.47  9.30  5.70                                                             
C 21.47  9.30 28.52                                                             
C 21.47  9.30 51.34                                                             
C 21.47  9.30 74.16                                                             
C 21.47  9.30 96.97                                                             
C 25.50  6.97  5.70                                                             
C 25.50  6.97 28.52                                                             
C 25.50  6.97 51.34                                                             
C 25.50  6.97 74.16                                                             
C 25.50  6.97 96.97                                                             
C 29.52  4.65  5.70                                                             
C 29.52  4.65 28.52                                                             
C 29.52  4.65 51.34                                                             
C 29.52  4.65 74.16                                                             
C 29.52  4.65 96.97                                                             
C 17.45 16.27  5.70                                                             
C 17.45 16.27 28.52                                                             
C 17.45 16.27 51.34                                                             
C 17.45 16.27 74.16                                                             
C 17.45 16.27 96.97                                                             
C 21.47 13.95  5.70                                                             
C 21.47 13.95 28.52                                                             
C 21.47 13.95 51.34                                                             
C 21.47 13.95 74.16                                                             
C 21.47 13.95 96.97                                                             
C 25.50 11.62  5.70                                                             
C 25.50 11.62 28.52                                                             
C 25.50 11.62 51.34                                                             
C 25.50 11.62 74.16                                                             
C 25.50 11.62 96.97                                                             
C 29.52  9.30  5.70                                                             
C 29.52  9.30 28.52                                                             
C 29.52  9.30 51.34                                                             
C 29.52  9.30 74.16                                                             
C 29.52  9.30 96.97                                                             
C 25.50 16.27  5.70                                                             
C 25.50 16.27 28.52                                                             
C 25.50 16.27 51.34                                                             
C 25.50 16.27 74.16                                                             
C 25.50 16.27 96.97                                                             
C 29.52 13.95  5.70                                                             
C 29.52 13.95 28.52                                                             
C 29.52 13.95 51.34                                                             
C 29.52 13.95 74.16                                                             
C 29.52 13.95 96.97                                                             
C  2.68  0.00 17.11                                                             
C  2.68  0.00 39.93                                                             
C  2.68  0.00 62.75                                                             
C  2.68  0.00 85.56                                                             
C  2.68  0.00 108.38                                                            
C  2.68  4.65 17.11                                                             
C  2.68  4.65 39.93                                                             
C  2.68  4.65 62.75                                                             
C  2.68  4.65 85.56                                                             
C  2.68  4.65 108.38                                                            
C  6.71  2.32 17.11                                                             
C  6.71  2.32 39.93                                                             
C  6.71  2.32 62.75                                                             
C  6.71  2.32 85.56                                                             
C  6.71  2.32 108.38                                                            
C 10.74  0.00 17.11                                                             
C 10.74  0.00 39.93                                                             
C 10.74  0.00 62.75                                                             
C 10.74  0.00 85.56                                                             
C 10.74  0.00 108.38                                                            
C  2.68  9.30 17.11                                                             
C  2.68  9.30 39.93                                                             
C  2.68  9.30 62.75                                                             
C  2.68  9.30 85.56                                                             
C  2.68  9.30 108.38                                                            
C  6.71  6.97 17.11                                                             
C  6.71  6.97 39.93                                                             
C  6.71  6.97 62.75                                                             
C  6.71  6.97 85.56                                                             
C  6.71  6.97 108.38                                                            
C 10.74  4.65 17.11                                                             
C 10.74  4.65 39.93                                                             
C 10.74  4.65 62.75                                                             
C 10.74  4.65 85.56                                                             
C 10.74  4.65 108.38                                                            
C 14.76  2.32 17.11                                                             
C 14.76  2.32 39.93                                                             
C 14.76  2.32 62.75                                                             
C 14.76  2.32 85.56                                                             
C 14.76  2.32 108.38                                                            
C 18.79  0.00 17.11                                                             
C 18.79  0.00 39.93                                                             
C 18.79  0.00 62.75                                                             
C 18.79  0.00 85.56                                                             
C 18.79  0.00 108.38                                                            
C  2.68 13.95 17.11                                                             
C  2.68 13.95 39.93                                                             
C  2.68 13.95 62.75                                                             
C  2.68 13.95 85.56                                                             
C  2.68 13.95 108.38                                                            
C  6.71 11.62 17.11                                                             
C  6.71 11.62 39.93                                                             
C  6.71 11.62 62.75                                                             
C  6.71 11.62 85.56                                                             
C  6.71 11.62 108.38                                                            
C 10.74  9.30 17.11                                                             
C 10.74  9.30 39.93                                                             
C 10.74  9.30 62.75                                                             
C 10.74  9.30 85.56                                                             
C 10.74  9.30 108.38                                                            
C 14.76  6.97 17.11                                                             
C 14.76  6.97 39.93                                                             
C 14.76  6.97 62.75                                                             
C 14.76  6.97 85.56                                                             
C 14.76  6.97 108.38                                                            
C 18.79  4.65 17.11                                                             
C 18.79  4.65 39.93                                                             
C 18.79  4.65 62.75                                                             
C 18.79  4.65 85.56                                                             
C 18.79  4.65 108.38                                                            
C 22.81  2.32 17.11                                                             
C 22.81  2.32 39.93                                                             
C 22.81  2.32 62.75                                                             
C 22.81  2.32 85.56                                                             
C 22.81  2.32 108.38                                                            
C 26.84  0.00 17.11                                                             
C 26.84  0.00 39.93                                                             
C 26.84  0.00 62.75                                                             
C 26.84  0.00 85.56                                                             
C 26.84  0.00 108.38                                                            
C  6.71 16.27 17.11                                                             
C  6.71 16.27 39.93                                                             
C  6.71 16.27 62.75                                                             
C  6.71 16.27 85.56                                                             
C  6.71 16.27 108.38                                                            
C 10.74 13.95 17.11                                                             
C 10.74 13.95 39.93                                                             
C 10.74 13.95 62.75                                                             
C 10.74 13.95 85.56                                                             
C 10.74 13.95 108.38                                                            
C 14.76 11.62 17.11                                                             
C 14.76 11.62 39.93                                                             
C 14.76 11.62 62.75                                                             
C 14.76 11.62 85.56                                                             
C 14.76 11.62 108.38                                                            
C 18.79  9.30 17.11                                                             
C 18.79  9.30 39.93                                                             
C 18.79  9.30 62.75                                                             
C 18.79  9.30 85.56                                                             
C 18.79  9.30 108.38                                                            
C 22.81  6.97 17.11                                                             
C 22.81  6.97 39.93                                                             
C 22.81  6.97 62.75                                                             
C 22.81  6.97 85.56                                                             
C 22.81  6.97 108.38                                                            
C 26.84  4.65 17.11                                                             
C 26.84  4.65 39.93                                                             
C 26.84  4.65 62.75                                                             
C 26.84  4.65 85.56                                                             
C 26.84  4.65 108.38                                                            
C 30.86  2.32 17.11                                                             
C 30.86  2.32 39.93                                                             
C 30.86  2.32 62.75                                                             
C 30.86  2.32 85.56                                                             
C 30.86  2.32 108.38                                                            
C 14.76 16.27 17.11                                                             
C 14.76 16.27 39.93                                                             
C 14.76 16.27 62.75                                                             
C 14.76 16.27 85.56                                                             
C 14.76 16.27 108.38                                                            
C 18.79 13.95 17.11                                                             
C 18.79 13.95 39.93                                                             
C 18.79 13.95 62.75                                                             
C 18.79 13.95 85.56                                                             
C 18.79 13.95 108.38                                                            
C 22.81 11.62 17.11                                                             
C 22.81 11.62 39.93                                                             
C 22.81 11.62 62.75                                                             
C 22.81 11.62 85.56                                                             
C 22.81 11.62 108.38                                                            
C 26.84  9.30 17.11                                                             
C 26.84  9.30 39.93                                                             
C 26.84  9.30 62.75                                                             
C 26.84  9.30 85.56                                                             
C 26.84  9.30 108.38                                                            
C 30.86  6.97 17.11                                                             
C 30.86  6.97 39.93                                                             
C 30.86  6.97 62.75                                                             
C 30.86  6.97 85.56                                                             
C 30.86  6.97 108.38                                                            
C 22.81 16.27 17.11                                                             
C 22.81 16.27 39.93                                                             
C 22.81 16.27 62.75                                                             
C 22.81 16.27 85.56                                                             
C 22.81 16.27 108.38                                                            
C 26.84 13.95 17.11                                                             
C 26.84 13.95 39.93                                                             
C 26.84 13.95 62.75                                                             
C 26.84 13.95 85.56                                                             
C 26.84 13.95 108.38                                                            
C 30.86 11.62 17.11                                                             
C 30.86 11.62 39.93                                                             
C 30.86 11.62 62.75                                                             
C 30.86 11.62 85.56                                                             
C 30.86 11.62 108.38                                                            
C 30.86 16.27 17.11                                                             
C 30.86 16.27 39.93                                                             
C 30.86 16.27 62.75                                                             
C 30.86 16.27 85.56                                                             
C 30.86 16.27 108.38                                                            
%ENDBLOCK POSITIONS_ABS                                                         

--------------------------------------------------------------------------------
-------------------------------- END INPUT FILE --------------------------------
--------------------------------------------------------------------------------


 
<<<<<<<<<<<<<<<<<<<<<<<<<<<<<<<<< Full system >>>>>>>>>>>>>>>>>>>>>>>>>>>>>>>>>>
<<<<<<<<<<<<<<<<<<<<<<<<<<< PAW Dataset information >>>>>>>>>>>>>>>>>>>>>>>>>>>
File: ~/pp/paw/c_pbe_abinit.paw; rc = 1.25 bohr; shape type =  3; rshape = 1.25 bohr;
  Atomic number:  6;  ionic charge:  4.000000
    Partial Wave 1: l = 0
    Partial Wave 2: l = 0
    Partial Wave 3: l = 1
    Partial Wave 4: l = 1
  Core charge supplied for Nonlinear Core Corrections
<<<<<<<<<<<<<<<<<<<<<<<<<<<<<<<<<<<<<<< >>>>>>>>>>>>>>>>>>>>>>>>>>>>>>>>>>>>>>>

-------------------------- Atom counting information ---------------------------
Symbol    Natoms    Nngwfs    Nprojs
  C        640      2560      5120
.......   ......    ......    ......
Totals:    640      2560      5120
--------------------------------------------------------------------------------

=============================== PSINC grid sizes ===============================
                      Simulation cell:   63 x  35 x 225
                              FFT-box:   63 x  35 x 117
                                  PPD:    7 x   5 x   1
Grid space d1=  0.511269841270a0 (KE cutoff=  29.06054Eh = 790.77748eV)
Grid space d2=  0.531142857143a0 (KE cutoff=  26.92659Eh = 732.70972eV)
Grid space d3=  0.507066666667a0 (KE cutoff=  29.54431Eh = 803.94163eV)
================================================================================
  
WARNING in cell_grid_distribute:
Average of less than one 23-slab per node, so workload cannot be
equally balanced between nodes.

********************* Fourier parallelisation information **********************
       Coarse grid (whole simulation cell) dimensions:     63    35   225
          Real-space ('12') slabs/node (min max mean):      5     6     5
         Recip-space ('23') slabs/node (min max mean):      0     1     0
********************************************************************************

********************* Fourier parallelisation information **********************
       Double grid (whole simulation cell) dimensions:    126    70   450
          Real-space ('12') slabs/node (min max mean):     11    12    11
         Recip-space ('23') slabs/node (min max mean):      1     2     1
********************************************************************************

Atom SCF Calculation for C  : Z (AE atom) =   6 : Z (PS atom) =   4
Config String: 2s2 2p2
Orbitals (num,occ):  2     2.00 2.00
Orbitals   (num,l):  2        0    1
Real-space Grid (nr,dr,rmax): 1293    0.0069659443    9.0000000000
Spherical Bessel Basis (nsws,lmax,cutoff):   37    2  161.4736382572
Confining potential (l,width,scale):  0    3.0000000000  100.0000000000
Confining potential (l,width,scale):  1    3.0000000000  100.0000000000
  1         -5.4966243538   -1.3415066196    4.5135257941   -1.6613421942
  2         -5.4660395227   -1.4172174419    4.4326892861   -1.6365362708
  3         -5.4759582348   -1.4337557188    4.4144498970   -1.6324663609
  4         -5.4843804720   -1.4365219414    4.4114201180   -1.6322033818
  5         -5.4882713954   -1.4381734139    4.4096331461   -1.6320227940
  6         -5.4902132675   -1.4390636620    4.4086785626   -1.6319270645
  7         -5.4912093711   -1.4395303631    4.4081823351   -1.6318789226
  8         -5.4917264140   -1.4397726342    4.4079268833   -1.6318551036
  9         -5.4919964206   -1.4398979410    4.4077958777   -1.6318434025
 10         -5.4921379132   -1.4399626875    4.4077287721   -1.6318376788
 11         -5.4922122245   -1.4399961532    4.4076943935   -1.6318348878
 12         -5.4922513136   -1.4400134684    4.4076767658   -1.6318335308
 13         -5.4922719001   -1.4400224400    4.4076677156   -1.6318328728
 14         -5.4922827535   -1.4400270959    4.4076630621   -1.6318325547
 15         -5.4922884809   -1.4400295164    4.4076606653   -1.6318324014
 16         -5.4922915059   -1.4400307770    4.4076594286   -1.6318323279
 17         -5.4922931051   -1.4400314347    4.4076587894   -1.6318322927
 18         -5.4922939512   -1.4400317785    4.4076584583   -1.6318322760
 19         -5.4922943993   -1.4400319585    4.4076582865   -1.6318322681
 20         -5.4922946368   -1.4400320529    4.4076581972   -1.6318322644
 21         -5.4922947627   -1.4400321025    4.4076581507   -1.6318322627
 22         -5.4922948296   -1.4400321287    4.4076581265   -1.6318322619
Atom SCF converged after  22 iterations to a total energy of     -5.49229483

Determining parallel strategy ...
... using space-filling curve
... NGWF load balancing: max     64;  min     64;  average     64
... Projector load balancing: max    128;  min    128;  average    128
... done
Calculating Ewald energy ...
              Ewald: real-space energy =   10198.412740
        Ewald: reciprocal-space energy =      36.875900
         Ewald: (sum_charge)**2 Energy =    9301.451204
         Ewald: (sum_charge**2) Energy =     735.344284
                          Ewald Energy =     198.493152
Basis initialisation ...... NGWF spheres initialised
... Projector spheres initialised
... NGWF tight boxes initialised
... Projector tight boxes initialised
... Tight-boxes gathered
... NGWF basis size (local,global):     692372  27887488
... PAW projector initialisation
... done

============================= Charge Augmentation ==============================
                           Aug box size:   11 x  11 x  11
================================================================================

========================== Sparse matrix information ===========================
                        Overlap matrix filling:  24.84%
                        Density kernel filling: 100.00%
              NGWF-Proj overlap matrix filling:   5.47%
                    Aug Overlap matrix filling:  25.00%
                    Hamiltonian matrix filling:  25.00%
                  NGWF diagonal matrix filling:   0.16%
                             KS matrix filling: 100.00% 
                           KSKS matrix filling: 100.00% 
================================================================================

Sparse matrix initialisation ... done
NGWF initialisation ...... done
============ Calculation of NGWF S^-1 using Hotelling algorithm ================ 
         Iteration  |  Frobenius norm and Maximum abs value    (of I-S*S_n^-1)   
               1       0.48706599E+02     0.97100335E+00
               2       0.47265119E+02     0.94414727E+00
               3       0.45201766E+02     0.89597924E+00
               4       0.42633852E+02     0.81706675E+00
               5       0.39609010E+02     0.71454657E+00
               6       0.36198384E+02     0.66224536E+00
               7       0.32779463E+02     0.61726981E+00
               8       0.29461424E+02     0.57758844E+00
               9       0.25664498E+02     0.52722144E+00
              10       0.20723897E+02     0.44526317E+00
              11       0.14424011E+02     0.32119527E+00
              12       0.76880420E+01     0.17281358E+00
              13       0.25492093E+01     0.54604349E-01
              14       0.33830275E+00     0.64576961E-02
              15       0.73130962E-02     0.11415658E-03
              16       0.48156390E-05     0.50126974E-07
              17       0.31742327E-11     0.21649349E-13
================================================================================
Calculating core density ...
================================= Core Density =================================
               Core den box size:   21 x  21 x  21
================================================================================
 ... done
Up spin density kernel initialisation ...... done

Writing density kernel to file "6.03712_GO_manual_4x64graphite.dkn" ... done

>>> Optimising kernel for current NGWFs:

--------------------------- Ensemble-DFT optimisation --------------------------
Running ScaLAPACK on   40 processor(s).

--------------------------------------------------------------------------------
  Iter                              Commutator    Free_energy(A=E-TS)     DeltaA
#    0                          0.000043038051   -3651.12339474295050  -3.65E+03

Step                       =       0.381966011250
Energy                     =   -3651.123369558461
Entropy (-TS)              =      -0.000025184490
Free energy (A=E-TS)       =   -3651.123394742950
Est. 0K Energy 0.5*(E+A)   =   -3651.123382150706
Residual Non-orthogonality =       0.000000000000
Residual N_electrons       =       0.000000000000

Spin          Integrated_Ne            Fermi_level     Delta_Fermi_level
   1      2560.000000000020        -0.008271913539             -8.27E-03

                           Spin 1          
     Orb      H-eigenvalues     Occupancies
       1 |    -0.7294734012    1.0000000000 | 
                          ------
    1276 |    -0.0450508013    0.9999909601 | 
    1277 |    -0.0450494390    0.9999909562 | 
    1278 |    -0.0450484063    0.9999909533 | 
    1279 |    -0.0450433230    0.9999909387 | 
    1280 |    -0.0450402014    0.9999909298 | 
                 - Gap at zero temperature -
    1281 |     0.0286252396    0.0000087085 | 
    1282 |     0.0286264830    0.0000087051 | 
    1283 |     0.0286271570    0.0000087032 | 
    1284 |     0.0286332472    0.0000086865 | 
    1285 |     0.0286360165    0.0000086789 | 
                          ------
    2560 |     0.8251289952    0.0000000000 | 

                       |  Abs_value |  Threshold | Converged
     Delta_Free_energy |   3.65E+03 |   1.00E-06 |        No
     Delta_Energy      |   3.65E+03 |   1.00E-04 |        No
     Delta_Entropy     |   2.52E-05 |   1.00E-04 |       Yes
     Commutator        |   4.30E-05 |   1.00E-05 |        No
     Delta_Fermi_level |   8.27E-03 |   1.00E-03 |        No

  Line search of the free energy minimum:
  Step_type        Step             Free_energy   Predicted_free_energy
.   Initial    0.000000    -3651.12339474295050
.    Trial1    0.381966    -3651.12546043939392
.    Trial2    0.618034    -3651.12608709750657
. Quadratic    0.797914    -3651.12623281698097    -3651.12623125573555

--------------------------------------------------------------------------------
  Iter                              Commutator    Free_energy(A=E-TS)     DeltaA
#    1                          0.000018160612   -3651.12623281698097  -2.84E-03

Step                       =       0.797914280917
Energy                     =   -3651.126207070879
Entropy (-TS)              =      -0.000025746058
Free energy (A=E-TS)       =   -3651.126232816981
Est. 0K Energy 0.5*(E+A)   =   -3651.126219943930
Residual Non-orthogonality =       0.000000000000
Residual N_electrons       =      -0.000000000043

Spin          Integrated_Ne            Fermi_level     Delta_Fermi_level
   1      2559.999999997864        -0.020166479525             -1.19E-02

                           Spin 1          
     Orb      H-eigenvalues     Occupancies
       1 |    -0.7447176364    1.0000000000 | 
                          ------
    1276 |    -0.0569543284    0.9999909857 | 
    1277 |    -0.0569533442    0.9999909829 | 
    1278 |    -0.0569525174    0.9999909805 | 
    1279 |    -0.0569519961    0.9999909790 | 
    1280 |    -0.0569513914    0.9999909773 | 
                 - Gap at zero temperature -
    1281 |     0.0165677684    0.0000091682 | 
    1282 |     0.0165694548    0.0000091633 | 
    1283 |     0.0165704958    0.0000091603 | 
    1284 |     0.0165712597    0.0000091581 | 
    1285 |     0.0165724210    0.0000091548 | 
                          ------
    2560 |     0.8090761949    0.0000000000 | 

                       |  Abs_value |  Threshold | Converged
     Delta_Free_energy |   2.84E-03 |   1.00E-06 |        No
     Delta_Energy      |   2.84E-03 |   1.00E-04 |        No
     Delta_Entropy     |   5.62E-07 |   1.00E-04 |       Yes
     Commutator        |   1.82E-05 |   1.00E-05 |        No
     Delta_Fermi_level |   1.19E-02 |   1.00E-03 |        No

  Line search of the free energy minimum:
  Step_type        Step             Free_energy   Predicted_free_energy
.   Initial    0.000000    -3651.12623281698097
.    Trial1    0.797914    -3651.12545565461687
.    Trial2    0.304776    -3651.12659063920546
. Quadratic    0.287155    -3651.12659199626887    -3651.12659199177142

--------------------------------------------------------------------------------
  Iter                              Commutator    Free_energy(A=E-TS)     DeltaA
#    2                          0.000006882499   -3651.12659199626887  -3.59E-04

Step                       =       0.287154663198
Energy                     =   -3651.126566224199
Entropy (-TS)              =      -0.000025772101
Free energy (A=E-TS)       =   -3651.126591996269
Est. 0K Energy 0.5*(E+A)   =   -3651.126579110234
Residual Non-orthogonality =       0.000000000000
Residual N_electrons       =       0.000000000032

Spin          Integrated_Ne            Fermi_level     Delta_Fermi_level
   1      2560.000000001501        -0.021010307173             -8.44E-04

                           Spin 1          
     Orb      H-eigenvalues     Occupancies
       1 |    -0.7458105932    1.0000000000 | 
                          ------
    1276 |    -0.0577535760    0.9999908579 | 
    1277 |    -0.0577518646    0.9999908529 | 
    1278 |    -0.0577512921    0.9999908513 | 
    1279 |    -0.0577512421    0.9999908511 | 
    1280 |    -0.0577505152    0.9999908490 | 
                 - Gap at zero temperature -
    1281 |     0.0157610741    0.0000090613 | 
    1282 |     0.0157632822    0.0000090550 | 
    1283 |     0.0157638378    0.0000090534 | 
    1284 |     0.0157648264    0.0000090506 | 
    1285 |     0.0157658742    0.0000090476 | 
                          ------
    2560 |     0.8079290172    0.0000000000 | 

                       |  Abs_value |  Threshold | Converged
     Delta_Free_energy |   3.59E-04 |   1.00E-06 |        No
     Delta_Energy      |   3.59E-04 |   1.00E-04 |        No
     Delta_Entropy     |   2.60E-08 |   1.00E-04 |       Yes
     Commutator        |   6.88E-06 |   1.00E-05 |       Yes
     Delta_Fermi_level |   8.44E-04 |   1.00E-03 |       Yes

  Line search of the free energy minimum:
  Step_type        Step             Free_energy   Predicted_free_energy
.   Initial    0.000000    -3651.12659199626887
.    Trial1    0.287155    -3651.12663733999034
.    Trial2    0.559437    -3651.12664133431917
. Quadratic    0.451944    -3651.12664429177948    -3651.12664429280858

--------------------------------------------------------------------------------
  Iter                              Commutator    Free_energy(A=E-TS)     DeltaA
#    3                          0.000004021599   -3651.12664429177948  -5.23E-05

Step                       =       0.451943690221
Energy                     =   -3651.126618496101
Entropy (-TS)              =      -0.000025795657
Free energy (A=E-TS)       =   -3651.126644291779
Est. 0K Energy 0.5*(E+A)   =   -3651.126631393940
Residual Non-orthogonality =       0.000000000000
Residual N_electrons       =      -0.000000000022

Spin          Integrated_Ne            Fermi_level     Delta_Fermi_level
   1      2559.999999998999        -0.021958913599             -9.49E-04

                           Spin 1          
     Orb      H-eigenvalues     Occupancies
       1 |    -0.7470271134    1.0000000000 | 
                          ------
    1276 |    -0.0586872502    0.9999908147 | 
    1277 |    -0.0586849039    0.9999908078 | 
    1278 |    -0.0586848668    0.9999908077 | 
    1279 |    -0.0586845191    0.9999908067 | 
    1280 |    -0.0586839834    0.9999908052 | 
                 - Gap at zero temperature -
    1281 |     0.0148211117    0.0000090366 | 
    1282 |     0.0148238087    0.0000090289 | 
    1283 |     0.0148239467    0.0000090286 | 
    1284 |     0.0148251549    0.0000090251 | 
    1285 |     0.0148261694    0.0000090222 | 
                          ------
    2560 |     0.8066622705    0.0000000000 | 

                       |  Abs_value |  Threshold | Converged
     Delta_Free_energy |   5.23E-05 |   1.00E-06 |        No
     Delta_Energy      |   5.23E-05 |   1.00E-04 |       Yes
     Delta_Entropy     |   2.36E-08 |   1.00E-04 |       Yes
     Commutator        |   4.02E-06 |   1.00E-05 |       Yes
     Delta_Fermi_level |   9.49E-04 |   1.00E-03 |       Yes

  Line search of the free energy minimum:
  Step_type        Step             Free_energy   Predicted_free_energy
.   Initial    0.000000    -3651.12664429177948
.    Trial1    0.451944    -3651.12665933471726
.    Trial2    0.661283    -3651.12664593622412
. Quadratic    0.339093    -3651.12666120877520    -3651.12666120836138

--------------------------------------------------------------------------------
  Iter                              Commutator    Free_energy(A=E-TS)     DeltaA
#    4                          0.000002374619   -3651.12666120877520  -1.69E-05

Step                       =       0.339092640490
Energy                     =   -3651.126635405039
Entropy (-TS)              =      -0.000025803748
[...]
 C   275 -- C   555       -0.10      5.37000
 C   274 -- C   554       -0.10      5.37000
 C   273 -- C   553       -0.10      5.37000
 C   272 -- C   552       -0.10      5.37000
 C   271 -- C   551       -0.10      5.37000
 C   270 -- C   550       -0.10      5.37000
 C   269 -- C   549       -0.10      5.37000
 C   268 -- C   548       -0.10      5.37000
 C   267 -- C   547       -0.10      5.37000
 C   266 -- C   546       -0.10      5.37000
 C   130 -- C   465       -0.10      5.37000
 C   129 -- C   464       -0.10      5.37000
 C   128 -- C   463       -0.10      5.37000
 C   127 -- C   462       -0.10      5.37000
 C   126 -- C   461       -0.10      5.37000
 C   240 -- C   525       -0.10      5.37000
 C   239 -- C   524       -0.10      5.37000
 C   238 -- C   523       -0.10      5.37000
 C   237 -- C   522       -0.10      5.37000
 C   236 -- C   521       -0.10      5.37000
 C    23 -- C   478       -0.10      5.37202
 C    49 -- C   469       -0.10      5.37202
 C    48 -- C   468       -0.10      5.37202
 C    47 -- C   467       -0.10      5.37202
 C    22 -- C   477       -0.10      5.37202
 C    46 -- C   466       -0.10      5.37202
 C    21 -- C   476       -0.10      5.37202
 C    25 -- C   480       -0.10      5.37202
 C    24 -- C   479       -0.10      5.37202
 C    50 -- C   470       -0.10      5.37202
 C    24 -- C   449       -0.10      5.37202
 C     6 -- C   416       -0.10      5.37202
 C    23 -- C   448       -0.10      5.37202
 C    22 -- C   447       -0.10      5.37202
 C    10 -- C   470       -0.10      5.37202
 C     5 -- C   450       -0.10      5.37202
 C    21 -- C   446       -0.10      5.37202
 C    10 -- C   420       -0.10      5.37202
 C     9 -- C   469       -0.10      5.37202
 C     9 -- C   419       -0.10      5.37202
 C     8 -- C   468       -0.10      5.37202
 C     4 -- C   449       -0.10      5.37202
 C     8 -- C   418       -0.10      5.37202
 C     2 -- C   447       -0.10      5.37202
 C     7 -- C   467       -0.10      5.37202
 C     7 -- C   417       -0.10      5.37202
 C     1 -- C   446       -0.10      5.37202
 C     6 -- C   466       -0.10      5.37202
 C    25 -- C   450       -0.10      5.37202
 C     3 -- C   448       -0.10      5.37202
 C   285 -- C   580       -0.10      5.37202
 C   284 -- C   579       -0.10      5.37202
 C   283 -- C   578       -0.10      5.37202
 C   282 -- C   577       -0.10      5.37202
 C   281 -- C   576       -0.10      5.37202
 C   260 -- C   605       -0.10      5.37202
 C   259 -- C   604       -0.10      5.37202
 C   258 -- C   603       -0.10      5.37202
 C   257 -- C   602       -0.10      5.37202
 C   256 -- C   601       -0.10      5.37202
 C   219 -- C   569       -0.10      5.37202
 C   218 -- C   568       -0.10      5.37202
 C   217 -- C   567       -0.10      5.37202
 C   216 -- C   566       -0.10      5.37202
 C    11 -- C   331       -0.10      5.37202
 C   205 -- C   550       -0.10      5.37202
 C   204 -- C   549       -0.10      5.37202
 C   203 -- C   548       -0.10      5.37202
 C   202 -- C   547       -0.10      5.37202
 C   201 -- C   546       -0.10      5.37202
 C    15 -- C   335       -0.10      5.37202
 C    30 -- C   355       -0.10      5.37202
 C    30 -- C   325       -0.10      5.37202
 C    14 -- C   334       -0.10      5.37202
 C    29 -- C   354       -0.10      5.37202
 C    29 -- C   324       -0.10      5.37202
 C   260 -- C   550       -0.10      5.37202
 C   259 -- C   549       -0.10      5.37202
 C    28 -- C   353       -0.10      5.37202
 C   258 -- C   548       -0.10      5.37202
 C   257 -- C   547       -0.10      5.37202
 C   256 -- C   546       -0.10      5.37202
 C    28 -- C   323       -0.10      5.37202
 C    27 -- C   352       -0.10      5.37202
 C    13 -- C   333       -0.10      5.37202
 C   250 -- C   540       -0.10      5.37202
 C   249 -- C   539       -0.10      5.37202
 C   248 -- C   538       -0.10      5.37202
 C   247 -- C   537       -0.10      5.37202
 C   246 -- C   536       -0.10      5.37202
 C    27 -- C   322       -0.10      5.37202
 C    26 -- C   351       -0.10      5.37202
 C    55 -- C   335       -0.10      5.37202
 C    26 -- C   321       -0.10      5.37202
 C    54 -- C   334       -0.10      5.37202
 C    12 -- C   332       -0.10      5.37202
 C    53 -- C   333       -0.10      5.37202
 C   230 -- C   580       -0.10      5.37202
 C   230 -- C   525       -0.10      5.37202
 C   229 -- C   579       -0.10      5.37202
 C   229 -- C   524       -0.10      5.37202
 C   228 -- C   578       -0.10      5.37202
 C    52 -- C   332       -0.10      5.37202
 C   228 -- C   523       -0.10      5.37202
 C   227 -- C   577       -0.10      5.37202
 C   227 -- C   522       -0.10      5.37202
 C   226 -- C   576       -0.10      5.37202
 C   226 -- C   521       -0.10      5.37202
 C    51 -- C   331       -0.10      5.37202
 C   220 -- C   570       -0.10      5.37202
 C   220 -- C   515       -0.10      5.37202
 C   219 -- C   514       -0.10      5.37202
 C   218 -- C   513       -0.10      5.37202
 C   217 -- C   512       -0.10      5.37202
 C   216 -- C   511       -0.10      5.37202
 C    95 -- C   425       -0.10      5.37202
 C    95 -- C   365       -0.10      5.37202
 C    94 -- C   424       -0.10      5.37202
 C    94 -- C   364       -0.10      5.37202
 C    93 -- C   423       -0.10      5.37202
 C   195 -- C   540       -0.10      5.37202
 C   195 -- C   500       -0.10      5.37202
 C    93 -- C   363       -0.10      5.37202
 C   194 -- C   539       -0.10      5.37202
 C    92 -- C   422       -0.10      5.37202
 C   194 -- C   499       -0.10      5.37202
 C   193 -- C   538       -0.10      5.37202
 C   193 -- C   498       -0.10      5.37202
 C    92 -- C   362       -0.10      5.37202
 C   192 -- C   537       -0.10      5.37202
 C    91 -- C   421       -0.10      5.37202
 C   192 -- C   497       -0.10      5.37202
 C   191 -- C   536       -0.10      5.37202
 C   191 -- C   496       -0.10      5.37202
 C    91 -- C   361       -0.10      5.37202
 C    85 -- C   355       -0.10      5.37202
 C   180 -- C   515       -0.10      5.37202
 C    40 -- C   365       -0.10      5.37202
 C    84 -- C   354       -0.10      5.37202
 C   179 -- C   514       -0.10      5.37202
 C    83 -- C   353       -0.10      5.37202
 C   178 -- C   513       -0.10      5.37202
 C   177 -- C   512       -0.10      5.37202
 C    82 -- C   352       -0.10      5.37202
 C    39 -- C   364       -0.10      5.37202
 C   176 -- C   511       -0.10      5.37202
 C    81 -- C   351       -0.10      5.37202
 C    38 -- C   363       -0.10      5.37202
 C    37 -- C   362       -0.10      5.37202
 C    36 -- C   361       -0.10      5.37202
 C    65 -- C   395       -0.10      5.37202
 C    65 -- C   345       -0.10      5.37202
 C    64 -- C   394       -0.10      5.37202
 C    64 -- C   344       -0.10      5.37202
 C    63 -- C   393       -0.10      5.37202
 C    63 -- C   343       -0.10      5.37202
 C    62 -- C   392       -0.10      5.37202
 C    62 -- C   342       -0.10      5.37202
 C    61 -- C   391       -0.10      5.37202
 C    61 -- C   341       -0.10      5.37202
 C   120 -- C   395       -0.10      5.37202
 C    55 -- C   385       -0.10      5.37202
 C   119 -- C   394       -0.10      5.37202
 C   118 -- C   393       -0.10      5.37202
 C   117 -- C   392       -0.10      5.37202
 C    54 -- C   384       -0.10      5.37202
 C   116 -- C   391       -0.10      5.37202
 C    53 -- C   383       -0.10      5.37202
 C    52 -- C   382       -0.10      5.37202
 C    51 -- C   381       -0.10      5.37202
 C   150 -- C   440       -0.10      5.37202
 C   149 -- C   439       -0.10      5.37202
 C   148 -- C   438       -0.10      5.37202
 C   147 -- C   437       -0.10      5.37202
 C   146 -- C   436       -0.10      5.37202
 C   135 -- C   460       -0.10      5.37202
 C   134 -- C   459       -0.10      5.37202
 C   133 -- C   458       -0.10      5.37202
 C   132 -- C   457       -0.10      5.37202
 C   131 -- C   456       -0.10      5.37202
 C   106 -- C   436       -0.10      5.37202
 C   106 -- C   376       -0.10      5.37202
 C    80 -- C   410       -0.10      5.37202
 C    79 -- C   409       -0.10      5.37202
 C    78 -- C   408       -0.10      5.37202
 C    77 -- C   407       -0.10      5.37202
 C    76 -- C   406       -0.10      5.37202
 C   135 -- C   410       -0.10      5.37202
 C   134 -- C   409       -0.10      5.37202
 C   133 -- C   408       -0.10      5.37202
 C   132 -- C   407       -0.10      5.37202
 C   131 -- C   406       -0.10      5.37202
 C   110 -- C   440       -0.10      5.37202
 C   110 -- C   380       -0.10      5.37202
 C   109 -- C   439       -0.10      5.37202
 C   109 -- C   379       -0.10      5.37202
 C   108 -- C   438       -0.10      5.37202
 C   108 -- C   378       -0.10      5.37202
 C   107 -- C   437       -0.10      5.37202
 C   107 -- C   377       -0.10      5.37202
 C   215 -- C   635       -0.10      5.38000
 C   214 -- C   634       -0.10      5.38000
 C   213 -- C   633       -0.10      5.38000
 C   212 -- C   632       -0.10      5.38000
 C   211 -- C   631       -0.10      5.38000
 C   190 -- C   620       -0.10      5.38000
 C   189 -- C   619       -0.10      5.38000
 C   188 -- C   618       -0.10      5.38000
 C   187 -- C   617       -0.10      5.38000
 C   186 -- C   616       -0.10      5.38000
 C   175 -- C   595       -0.10      5.38000
 C   174 -- C   594       -0.10      5.38000
 C   173 -- C   593       -0.10      5.38000
 C   172 -- C   592       -0.10      5.38000
 C   171 -- C   591       -0.10      5.38000
 C   245 -- C   640       -0.10      5.38000
 C   244 -- C   639       -0.10      5.38000
 C   243 -- C   638       -0.10      5.38000
 C   242 -- C   637       -0.10      5.38000
 C   241 -- C   636       -0.10      5.38000
==================================================


=================== Orbital energy and occupancy information ===================

      Total number of orbitals:    2560
        Occupancy sum (kernel):    1280.000000000
   Occupancy sum (eigenvalues):    1280.000000000
                 HOMO-LUMO gap:       0.000000314 Eh
                 Mid-gap level:       0.109699259 Eh

                        Orbital | Energy (Eh) | Occupancy
                            1    -0.645017258   1.0000000
                        .......   ...........   .........
                         1272     0.036664381   0.9999907
                         1273     0.036668224   0.9999907
                         1274     0.036688121   0.9999906
                         1275     0.036695210   0.9999906
                         1276     0.037037091   0.9999895
                         1277     0.037042036   0.9999895
                         1278     0.037062813   0.9999895
                         1279     0.037065547   0.9999895
                         1280     0.037080095   0.9999894
                         1281     0.109699102   0.0000103
                        ....... -- gap at 0K -- .........
                         1282     0.109699416   0.0000103
                         1283     0.109701724   0.0000103
                         1284     0.109701916   0.0000103
                         1285     0.109712873   0.0000103
                         1286     0.109953678   0.0000095
                         1287     0.109953996   0.0000095
                         1288     0.109956283   0.0000095
                         1289     0.109956501   0.0000095
                         1290     0.109967479   0.0000095
                         1291     0.110157580   0.0000089
                        .......   ...........   .........
                         2560     0.969555677   0.0000000

================================================================================

===================== Writing canonical molecular orbitals =====================
| Orbital  Energy (eV)  Norm     |
| HOMO      2.98506445  1.000000 | Writing "6.03712_GO_manual_4x64graphite_HOMO.cube" ... done
Writing "6.03712_GO_manual_4x64graphite_HOMO.dx" ... done
| LUMO      2.98507299  1.000000 | Writing "6.03712_GO_manual_4x64graphite_LUMO.cube" ... done
Writing "6.03712_GO_manual_4x64graphite_LUMO.dx" ... done
================================================================================
 
===================== Density of States (DOS) calculation ======================
Writing "6.03712_GO_manual_4x64graphite_DOS.txt" ...  done
================================================================================
 
Writing bands to file "6.03712_GO_manual_4x64graphite.val_bands" ... done
 
================ Projected Density of States (pDOS) calculation ================
 
Constructing AM resolved functions  ...... done
Writing NGWF plot files in formats: CUBE DX ...  done
 
Performing overlap integrals ...  done
 
Computing pDOS weights ...  done
 
All bands spilling parameter =   2.46 %
Occupancy-weighted spilling parameter =   1.02 %
 
 => Outputting data for OptaDOS <=
 
Writing pDOS weights to file "6.03712_GO_manual_4x64graphite.val_pdos_bin" ... done
 
Writing band gradients to file "6.03712_GO_manual_4x64graphite.val_dome_bin" ... done
 
Writing Castep output cell file to "6.03712_GO_manual_4x64graphite-out.cell" ... done
 
 => Computing Gaussian smeared pDOS <= 
Writing "6.03712_GO_manual_4x64graphite_PDOS.txt" ...  done
 
 => Computing Occupancy-weighted Gaussian smeared pDOS <= 
Writing "6.03712_GO_manual_4x64graphite_occ_PDOS.txt" ...  done
  => Band centres: 
 S band centre of group 1:  -15.680867 eV
 P band centre of group 1:   -8.522502 eV
  Band centres done. <=
  => Integrated number of electrons in each AM band: 
 S num electrons of group 1:  577.080803
 P num electrons of group 1: 1956.707507
  Integrated number of electrons done. <=
================================================================================

------------------------------ TIMING INFORMATION ------------------------------
AVERAGE TIME:    2091.546s on     40 node(s)                                    
TOTAL TIME:      2091.547s on     40 node(s)                                    
================= AVERAGE TIMINGS FROM ALL NODES (CUMULATIVE) ==================
|| TAG                                    #calls    cpu time   %total  Gflops ||
|| work_imbalance                       :     1        0.00s   0.000%  ------ ||
|| paw_tcore_hartree_on_grid            :     1        0.01s   0.000%  ------ ||
|| paw_tcore_density                    :     1        0.01s   0.000%  ------ ||
|| paw_sphere_density_on_grid           :     1        0.01s   0.001%  ------ ||
|| sparse_set_to_garbage                :   123        0.01s   0.001%  ------ ||
|| paw_dij_hartree                      :   246        0.03s   0.001%  ------ ||
|| basis_extract_function_from_box      :  1408        0.06s   0.003%  ------ ||
|| pseudo_make_structure_factor         :     1        0.09s   0.004%  ------ ||
|| paw_species_calc_proj_prec_mat       :     1        0.12s   0.006%  ------ ||
|| paw_dataset_init                     :     1        0.15s   0.007%  ------ ||
|| density_init_guess_real              :     1        0.29s   0.014%  ------ ||
|| restart_kernel_write                 :    12        0.62s   0.030%  ------ ||
|| ngwfs_initialise_from_radial         :     2        0.66s   0.032%  ------ ||
|| sparse_init                          :     1        0.71s   0.034%  ------ ||
|| dense_normal_eigensolve              :     1        1.12s   0.053%  ------ ||
|| hartree_on_grid                      :   187        1.73s   0.083%  ------ ||
|| projectors_init_fftbox_recip         :   111        2.23s   0.107%  ------ ||
|| fourier_apply_box_pair               :  2080        3.44s   0.165% 560.241 ||
|| basis_copy_function_to_box           : 17728        3.79s   0.181%  ------ ||
|| augmentation_screen_dij              :   192        4.21s   0.201%  ------ ||
|| sparse_embed_hotelling_invert_embed  :    21        6.09s   0.291%  ------ ||
|| ngwf_gradient_coeffs                 :    11        6.70s   0.320%  ------ ||
|| sw_init                              :     1        6.73s   0.322%  ------ ||
|| sparse_trace                         :  2226        6.75s   0.323%  ------ ||
|| ewald_calculate_energy               :     1        7.98s   0.381%  ------ ||
|| cell_grid_deposit_box_real           : 24112       14.95s   0.715%  ------ ||
|| paw_dij_xc                           :   246       16.29s   0.779%  ------ ||
|| fourier_apply_cell_forward           :  5395       17.58s   0.841%  67.462 ||
|| fourier_apply_cell_backward          :  5768       18.55s   0.887%  68.379 ||
|| cell_grid_extract_box_real           :  7436       18.86s   0.902%  ------ ||
|| aug_nonlocal_mat                     :   235       20.87s   0.998%  ------ ||
|| projectors_func_ovlp_box             :    22       24.79s   1.185%  ------ ||
|| function_ops_brappd_ketppd           :    44       25.63s   1.225%  ------ ||
|| augmentation_density_on_grid         :   187       29.06s   1.389%  ------ ||
|| density_fftbox_deposit_to_cell       : 11968       29.85s   1.427%  ------ ||
|| hamiltonian_energy_components        :     3       35.53s   1.699%  ------ ||
|| integrals_kinetic                    :    21       43.48s   2.079%  ------ ||
|| eigenstates_pdos                     :     1       51.42s   2.458%  ------ ||
|| eigenstates_calculate                :     1       56.72s   2.712%  ------ ||
|| xc_energy_potential                  :   186       73.91s   3.534%  ------ ||
|| nlxc_vdw_energy                      :   372       77.57s   3.709%  ------ ||
|| sparse_product                       :  2273       78.87s   3.771%  ------ ||
|| dense_eigensolve                     :   162       80.57s   3.852%  ------ ||
|| basis_dot_function_with_box          : 3.142M      84.70s   4.049%  ------ ||
|| potential_apply_to_ngwf_batch        :   228       87.92s   4.204%  ------ ||
|| projectors_gradient_batch            :    44       89.34s   4.271%  ------ ||
|| restart_ngwfs_tightbox_output        :    10      111.04s   5.309%  ------ ||
|| properties_calculate                 :     1      115.19s   5.507%  ------ ||
|| integrals_locpot_mat_els_batch       :   228      118.49s   5.665%  ------ ||
|| projectors_grad_precond_batch        :    44      132.15s   6.318%  ------ ||
|| fourier_apply_box                    : 56112      174.24s   8.330% 974.200 ||
|| edft_diag_ngwf_ham                   :   161      179.84s   8.598%  ------ ||
|| integrals_locpot_dbl_grid            :    57      207.18s   9.906%  ------ ||
|| density_fftbox_interpolate_multiply  : 11968      231.18s  11.053%  ------ ||
|| basis_add_function_to_box            : 9.403M     244.01s  11.666%  ------ ||
|| ngwf_gradient_build_batch            :    44      254.83s  12.184%  ------ ||
|| density_batch_interp_deposit         :   748      288.28s  13.783%  ------ ||
|| density_batch_row_sums               :   748      340.18s  16.265%  ------ ||
|| edft_apply_smearing_operator         :   161      349.66s  16.718%  ------ ||
|| ngwf_gradient_batch                  :    44      355.40s  16.992%  ------ ||
|| ngwf_gradient_lnv                    :    11      372.38s  17.804%  ------ ||
|| density_on_dbl_grid                  :   187      641.49s  30.671%  ------ ||
|| hamiltonian_lhxc_calculate           :   182      728.27s  34.820%  ------ ||
|| edft_calculate                       :    11     1273.13s  60.870%  ------ ||
|| ngwf_cg_optimise                     :     1     1950.53s  93.258%  ------ ||
|| total_time                           :     1     2091.55s 100.000%  ------ ||
================================================================================
Overhead of generating timer report: 
- 0 ms averaging over threads,
- 5 ms ensuring consistency across MPI ranks,
- 0 ms printing in order.

Job completed: 09-03-2020 14:58 (-0000)

