 +---------------------------------------------------------------+
 |                                                               |
 |        ####### #     # ####### ####### ####### ######         |
 |        #     # ##    # #          #    #       #     #        |
 |        #     # # #   # #          #    #       #     #        |
 |        #     # #  #  # #####      #    #####   ######         |
 |        #     # #   # # #          #    #       #              |
 |        #     # #    ## #          #    #       #              |
 |        ####### #     # #######    #    ####### #              |
 |                                                               |
 |        Linear-Scaling Ab Initio Total Energy Program          |
 |                                                               |
 |          Release for academic collaborators of ODG            |
 |                                             Version 5.3.2.12  |
 |                                                               |
 +---------------------------------------------------------------+
 |                                                               |
 |  Authors:                                                     |
 |  Jacek Dziedzic, Peter D. Haynes, Nicholas D. M. Hine,        |
 |  Arash. A. Mostofi, Mike C. Payne and Chris-Kriton Skylaris   |
 |                                                               |
 |  Contributors:                                                |
 |  J. Aarons, L. Andrinopoulos, P. W. Avraam, R. A. Bell,       |
 |  A. Bhandari, G. A. Bramley, R. J. Charlton, S. J. Clark,     |
 |  R. J. Clements, G. C. Constantinescu, F. Corsetti,           |
 |  N. Corsini, O. Dieguez, S. M. M. Dubois, K. K. B. Duff,      |
 |  J. M. Escartin, A. Greco, H. Helal, Q. O. Hill, L. P. Lee,   |
 |  J.-H. Li, E. B. Linscott, G. Moynihan, D. D. O`Regan,        |
 |  O. K. Okan, M. J. S. Phipps, C. J. Pickard,                  |
 |  J. C. A. Prentice, M. I. J. Probert, L. E. Ratcliff,         |
 |  M. Robinson, A. Ruiz Serrano, J. S. Spencer, E. W. Tait,     |
 |  G. Teobaldi, D. Turban, V. Vitale, K. A. Wilkinson,          |
 |  C. Weber, J. C. Womack, N. Yeung and T. J. Zuehlsdorff       |
 |                                                               |
 |                                   Copyright (c) 2004-2020     |
 |                                                               |
 |  Please cite:                                                 |
 |  "Introducing ONETEP: Linear-scaling density functional       |
 |   simulations on parallel computers".                         |
 |   C.-K. Skylaris, P. D. Haynes, A. A. Mostofi, M. C. Payne.   |
 |   J. Chem. Phys. 122 084119 (2005).                           |
 |                                                               |
 |          in all publications arising from your use of ONETEP. |
 |                                                               |
 +---------------------------------------------------------------+
 |                                                               |
 |   ONETEP is based on developments described in the following  |
 |   publications:                                               |
 |                                                               |
 |  "Nonorthogonal generalized Wannier function pseudopotential  |
 |   plane-wave method".                                         |
 |   C.-K. Skylaris, A. A. Mostofi, P. D. Haynes, O. Dieguez,    |
 |   M. C. Payne.                                                |
 |   Phys. Rev. B 66 035119 (2002).                              |
 |                                                               |
 |  "Preconditioned iterative minimization for linear-scaling    |
 |   electronic structure calculations".                         |
 |   A. A. Mostofi, P. D. Haynes, C.-K. Skylaris, M. C. Payne.   |
 |   J. Chem. Phys. 119(17), pp.8842-8848 (2003).                |
 |                                                               |
 |  "Total-energy calculations on a real space grid with         |
 |   localized functions and a plane-wave basis".                |
 |   A. A. Mostofi, C.-K. Skylaris, P. D. Haynes, M. C. Payne.   |
 |   Comput. Phys. Commun. 147, pp.788-802 (2002).               |
 |                                                               |
 |  "Accurate kinetic energy evaluation in electronic structure  |
 |   calculations with localized functions on real space grids"  |
 |   C.-K. Skylaris, A. A. Mostofi, P. D. Haynes, C. J. Pickard, |
 |   M. C. Payne.                                                |
 |   Comput. Phys. Commun. 140, pp.315-322 (2001).               |
 |                                                               |
 |  "Accurate ionic forces and geometry optimization in linear-  |
 |   scaling density-functional theory with local orbitals"      |
 |   N. D. M. Hine, M. Robinson, P. D. Haynes, C.-K. Skylaris,   |
 |   M. C. Payne, and A. A. Mostofi.                             |
 |   Phys. Rev. B 83 195102 (2011).                              |
 |                                                               |
 +---------------------------------------------------------------+

Job started: 15-05-2020 03:40 (+0100)
 
Reading parameters from file "592nano.dat" ...... done

If your calculation crashes here, before "Checking processes and threads..."
is displayed, then your stack size is insufficient.
If so, use "ulimit -s unlimited" at runtime.
You can disable this check with "check_stack_size F".

Checking processes and threads...
   Determining the default number of threads...
      No default threads set at compilation time: defaulting to 1.
      OpenMP library call suggests 4 threads.
      Hybrid MPI-OpenMP compilation detected.
      Number of MPI processes > 1.
      OMP_NUM_THREADS environment variable present and
      its value matches the one obtained from the OpenMP library call.
      Using this value as default.
      Default threads: 4
      Default applies to threads_max and threads_num_fftboxes.
      Settings in the input file override this default.
   ... done

   Running with 12 MPI processes.
   There are 1 MPI processes running on the same node as the root process.
   Each MPI process is using: 
               1 threads for simulation cell FFTs.
               1 threads for parallel FFT box operations.
               4 threads for loops over batched FFT box operations.
               4 threads in other parallel regions.
... done

Basic input checks...
Resetting ngwf_cg_rotate to TRUE for EDFT calculations
... done

Reading geometry and species blocks from file "592nano.dat" ...    
  Number of PPD points along a3 set to 1.  This is 
  the default value, it may have been provided also in the input file.
... done


--------------------------------------------------------------------------------
---------------------------------- INPUT FILE ----------------------------------
--------------------------------------------------------------------------------

task : geometryoptimization                                                     
do_properties : true                                                            
dx_format T                                                                     
edft T                                                                          
output_detail VERBOSE                                                           
write_xyz T                                                                     
dispersion 4                                                                    
xc_functional PBE                                                               
cutoff_energy 830 eV                                                            
paw T                                                                           
geom_disp_tol 0.015 bohr                                                        
geom_energy_tol 1.5E-6 hartree                                                  
geom_force_tol 0.003 "ha/bohr"                                                  
geom_continuation T                                                             
EDFT_MAXIT 30                                                                   
pdos_max_l = 2                                                                  
dos_smear  0.1 eV                                                               
popn_calculate T                                                                
PDOS_PSEUDOATOMIC T                                                             
PDOS_REDUCE_SWS F                                                               
PDOS_CONSTRUCT_BASIS F                                                          
PDOS_LOWDIN T                                                                   
PDOS_ORTH_ATOM_BLOCKS F                                                         
PDOS_LCAO_OPTIMIZE F                                                            
pdos_optados_output T                                                           
homo_plot 0                                                                     
lumo_plot 0                                                                     
homo_dens_plot -1                                                               
lumo_dens_plot -1                                                               
%BLOCK SPECIES                                                                  
C C 6 4 9.0                                                                     
H H 1 1 9.0                                                                     
Li Li 3 5 9.0                                                                   
%ENDBLOCK SPECIES                                                               
%BLOCK SPECIES_POT                                                              
C "~/pp/paw/c_pbe_abinit.paw"                                                   
H "~/pp/paw/h_pbe_abinit.paw"                                                   
Li "~/pp/paw/li_pbe_abinit.paw"                                                 
%ENDBLOCK SPECIES_POT                                                           
%BLOCK SPECIES_ATOMIC_SET                                                       
C "SOLVE conf=2s2 2p2"                                                          
H "SOLVE conf=1s1"                                                              
Li "SOLVE conf=1s2 2s1 2p0"                                                     
%ENDBLOCK SPECIES_ATOMIC_SET                                                    
%BLOCK LATTICE_CART                                                             
94.486315650000      0.000000000000       0.000000000000                        
0.000000000000       94.486315650000      0.000000000000                        
0.000000000000       0.000000000000       94.486315650000                       
%ENDBLOCK LATTICE_CART                                                          
%BLOCK POSITIONS_ABS                                                            
C 45.480499 50.705829 30.686013                                                 
C 45.424362 50.613321 36.830684                                                 
C 46.825750 53.034255 30.676208                                                 
C 48.112298 50.613762 36.827645                                                 
C 49.512186 48.376423 30.673626                                                 
C 49.456645 48.289137 36.822969                                                 
C 50.853887 50.703519 30.673275                                                 
C 52.145643 48.289644 36.820870                                                 
C 45.484114 55.362629 30.680436                                                 
C 45.428459 55.264300 36.827048                                                 
C 46.830126 57.690005 30.674174                                                 
C 48.115770 55.264457 36.827180                                                 
C 49.511489 53.031854 30.673738                                                 
C 49.458373 52.938360 36.823869                                                 
C 50.855395 55.359770 30.675603                                                 
C 52.147124 52.938163 36.823476                                                 
C 45.402788 50.502167 42.974524                                                 
C 45.392265 50.415284 49.123877                                                 
C 46.746070 52.827866 42.974499                                                 
C 48.080920 50.417188 49.123355                                                 
C 49.431194 48.176118 42.973588                                                 
C 49.422012 48.087069 49.123069                                                 
C 50.775196 50.501915 42.972768                                                 
C 52.111396 48.087552 49.121668                                                 
C 45.403596 55.153312 42.974888                                                 
C 45.394992 55.068959 49.125495                                                 
C 46.747911 57.480089 42.976977                                                 
C 48.084793 55.072133 49.127165                                                 
C 49.432153 52.827931 42.973831                                                 
C 49.428324 52.744695 49.122722                                                 
C 50.775841 55.155256 42.977508                                                 
C 52.123337 52.745592 49.132101                                                 
C 57.581029 48.377127 30.681393                                                 
C 57.524130 48.286424 36.832101                                                 
C 58.922364 50.703869 30.688195                                                 
C 60.241346 48.289530 36.846935                                                 
C 57.498147 48.174806 42.960429                                                 
C 57.491337 48.071791 49.104655                                                 
C 58.839584 50.499960 42.962438                                                 
C 60.209241 48.063913 49.069749                                                 
C 53.541100 50.703119 30.673372                                                 
C 53.489241 50.613533 36.823605                                                 
C 54.886372 53.031997 30.676662                                                 
C 56.185903 50.613731 36.829707                                                 
C 53.462133 50.501521 42.970860                                                 
C 53.462125 50.416480 49.126194                                                 
C 54.805655 52.829057 42.975799                                                 
C 56.160218 50.412066 49.127143                                                 
C 57.582570 43.727192 30.697455                                                 
C 57.521696 43.628474 36.833686                                                 
C 58.920794 46.045737 30.693084                                                 
C 60.240107 43.644622 36.848269                                                 
C 57.494952 43.527963 42.948989                                                 
C 57.473854 43.408026 49.086700                                                 
C 58.835576 45.843328 42.949002                                                 
C 60.189439 43.416354 49.047959                                                 
C 53.542894 46.049650 30.672842                                                 
C 53.489691 45.961104 36.822616                                                 
C 54.884888 48.374463 30.671770                                                 
C 56.184048 45.961422 36.827536                                                 
C 53.461921 45.851402 42.967483                                                 
C 53.447655 45.753051 49.116770                                                 
C 54.804322 48.173973 42.967347                                                 
C 56.144149 45.748939 49.105420                                                 
C 57.583920 57.680646 30.719469                                                 
C 57.523045 57.599456 36.867877                                                 
C 58.929470 60.042816 30.766708                                                 
C 60.240611 57.583133 36.887388                                                 
C 57.499447 57.474800 42.986495                                                 
C 57.515066 57.411470 49.217353                                                 
C 58.842852 59.837888 42.973841                                                 
C 60.258838 57.372057 49.088286                                                 
C 45.485199 64.677454 30.721419                                                 
C 45.449791 64.573707 36.870477                                                 
C 46.863838 67.022420 30.769204                                                 
C 48.124746 64.574905 36.881196                                                 
C 49.520205 62.344805 30.714574                                                 
C 49.472278 62.249253 36.863681                                                 
C 50.885366 64.695714 30.761750                                                 
C 52.157176 62.247728 36.878657                                                 
C 45.393212 64.460445 42.972050                                                 
C 45.388684 64.381627 49.115299                                                 
C 46.765492 66.805739 42.968872                                                 
C 48.064201 64.390300 49.135161                                                 
C 49.431053 62.134944 42.984271                                                 
C 49.427753 62.066452 49.151781                                                 
C 50.790744 64.486151 42.982792                                                 
C 52.116017 62.073725 49.184870                                                 
C 53.550461 60.014406 30.714080                                                 
C 53.498891 59.923070 36.863051                                                 
C 54.908463 62.369062 30.761374                                                 
C 56.187338 59.917664 36.880487                                                 
C 53.465066 59.808473 42.992138                                                 
C 53.463073 59.747913 49.220689                                                 
C 54.819048 62.163953 42.989190                                                 
C 56.167760 59.746048 49.238620                                                 
C 57.581784 53.030845 30.687667                                                 
C 57.524817 52.941147 36.840750                                                 
C 58.921909 55.362523 30.707443                                                 
C 60.241472 52.937981 36.857239                                                 
C 57.499550 52.826297 42.974029                                                 
C 57.509915 52.738048 49.149839                                                 
C 58.838555 55.157557 42.978720                                                 
C 60.239033 52.715643 49.119053                                                 
C 45.484149 60.019645 30.679929                                                 
C 45.438190 59.917825 36.836262                                                 
C 46.835254 62.350568 30.699305                                                 
C 48.121188 59.917534 36.841112                                                 
C 49.514772 57.686343 30.679642                                                 
C 49.463067 57.590151 36.832580                                                 
C 50.864879 60.020306 30.697114                                                 
C 52.151230 57.589820 36.838857                                                 
C 45.401056 59.806238 42.976738                                                 
C 45.392023 59.724807 49.130392                                                 
C 46.747514 62.137561 42.978758                                                 
C 48.082533 59.730128 49.143562                                                 
C 49.432591 57.479602 42.979373                                                 
C 49.432373 57.404131 49.140367                                                 
C 50.779611 59.813529 42.986801                                                 
C 52.125279 57.407717 49.173110                                                 
C 53.545208 55.356707 30.681744                                                 
C 53.491574 55.266734 36.832600                                                 
C 54.893946 57.690107 30.699266                                                 
C 56.185804 55.266547 36.843929                                                 
C 53.464406 55.152347 42.980880                                                 
C 53.472644 55.076219 49.164737                                                 
C 54.810036 57.485571 42.990485                                                 
C 56.169239 55.065908 49.202441                                                 
H 27.325354 41.372917 31.076522                                                 
H 28.273823 39.525202 36.849124                                                 
H 27.243021 41.161995 42.860177                                                 
H 28.191097 39.346999 48.912393                                                 
H 41.829820 30.271244 30.774183                                                 
C 42.873100 32.055144 30.720543                                                 
H 44.458152 30.215153 36.859443                                                 
H 41.717383 30.099526 42.810484                                                 
C 42.764449 31.882975 42.849922                                                 
H 44.384264 29.992451 48.901752                                                 
H 29.662619 37.301547 31.100410                                                 
C 30.694239 39.087263 30.961002                                                 
H 32.325022 37.199402 36.885863                                                 
H 33.730801 34.923417 30.768808                                                 
C 34.763888 36.716814 30.716766                                                 
H 29.573742 37.110457 42.814398                                                 
C 30.597020 38.908002 42.852689                                                 
H 32.233547 37.015395 48.923581                                                 
H 33.623031 34.781109 42.817698                                                 
C 34.658965 36.573698 42.849619                                                 
H 37.789771 32.599603 30.685444                                                 
C 38.820929 34.393805 30.635972                                                 
H 40.428303 32.546102 36.835436                                                 
H 37.679605 32.439165 42.819280                                                 
C 38.713430 34.232781 42.853662                                                 
H 40.349049 32.330084 48.917700                                                 
H 46.503464 30.285988 30.834823                                                 
H 46.393793 30.107294 42.839694                                                 
H 25.897577 48.256484 37.655836                                                 
C 27.959171 48.264552 37.452756                                                 
H 25.865055 48.063175 49.022723                                                 
C 27.935074 48.064077 49.063733                                                 
H 25.905167 43.526191 37.106033                                                 
H 27.285882 46.050423 30.392582                                                 
C 27.973982 43.545559 37.113717                                                 
H 25.855479 43.392798 48.958515                                                 
H 27.251084 45.820455 42.941429                                                 
C 27.923439 43.377115 49.009353                                                 
H 25.921902 57.665543 36.875023                                                 
H 27.334460 60.091784 30.898932                                                 
C 27.990933 57.662861 36.896831                                                 
H 25.856033 57.421865 48.976130                                                 
H 27.242089 59.843079 42.912229                                                 
C 27.923834 57.437394 49.029571                                                 
H 25.905909 53.004963 37.208677                                                 
H 27.324344 55.420986 30.705445                                                 
C 27.974377 52.984262 37.163081                                                 
H 25.865392 52.750362 49.027741                                                 
H 27.248915 55.183475 42.941841                                                 
C 27.935403 52.749688 49.069386                                                 
C 29.384402 41.363414 30.911733                                                 
C 29.285151 41.326152 36.965041                                                 
C 30.655020 43.743243 30.628301                                                 
C 31.994965 41.251355 36.923941                                                 
C 33.399046 38.993894 30.810925                                                 
C 33.346720 38.997145 36.854524                                                 
C 34.740008 41.379357 30.704519                                                 
C 36.023940 38.938327 36.806185                                                 
C 29.356717 46.052691 30.327031                                                 
C 29.249693 45.942214 37.278721                                                 
C 30.654689 48.406076 30.078042                                                 
C 31.976543 45.935003 37.085361                                                 
C 33.390206 43.712730 30.590425                                                 
C 33.324842 43.618632 36.929633                                                 
C 34.732901 46.062148 30.436565                                                 
C 36.014762 43.619037 36.822751                                                 
C 29.310344 41.141244 42.884877                                                 
C 29.211703 41.143942 48.986687                                                 
C 30.601236 43.529494 42.942691                                                 
C 31.929051 41.064475 49.030587                                                 
C 33.310251 38.835136 42.871589                                                 
C 33.270580 38.805068 48.996926                                                 
C 34.653422 41.195580 42.912932                                                 
C 35.952796 38.736919 49.034751                                                 
C 29.320002 45.821653 42.977528                                                 
C 29.218340 45.765214 49.061623                                                 
C 30.600077 48.176637 43.013213                                                 
C 31.937606 45.746812 49.091343                                                 
C 33.317711 43.513595 42.944178                                                 
C 33.275252 43.428131 49.077578                                                 
C 34.653253 45.847474 42.967310                                                 
C 35.966454 43.418769 49.097464                                                 
C 41.461762 39.045624 30.619831                                                 
C 41.411422 38.976858 36.799874                                                 
C 42.801444 41.384485 30.634954                                                 
C 44.093433 38.976598 36.814932                                                 
C 41.367951 38.865599 42.930092                                                 
C 41.343983 38.765039 49.081823                                                 
C 42.716190 41.196974 42.953779                                                 
C 44.030253 38.763664 49.096192                                                 
C 37.438175 41.371890 30.641076                                                 
C 37.369543 41.298826 36.782128                                                 
C 38.768425 43.713748 30.612636                                                 
C 40.055992 41.297536 36.777085                                                 
C 37.340724 41.190113 42.924688                                                 
C 37.310344 41.093868 49.082225                                                 
C 38.685929 43.523730 42.946924                                                 
C 39.997863 41.089928 49.099383                                                 
C 41.451359 34.366150 30.652807                                                 
C 41.458651 34.338405 36.821359                                                 
C 42.817659 36.716333 30.635084                                                 
C 44.082638 34.307424 36.826810                                                 
C 41.344335 34.196771 42.875122                                                 
C 41.380252 34.122439 48.993687                                                 
C 42.717235 36.541250 42.915400                                                 
C 44.006991 34.088592 49.026000                                                 
C 37.422734 36.675930 30.640339                                                 
C 37.402585 36.667346 36.817072                                                 
C 38.778145 39.041382 30.629566                                                 
C 40.057575 36.622577 36.808598                                                 
C 37.328186 36.517313 42.872631                                                 
C 37.324338 36.460917 48.998127                                                 
C 38.684071 38.866683 42.911601                                                 
C 39.980992 36.411328 49.033785                                                 
C 41.449717 48.378438 30.670271                                                 
C 41.392498 48.286968 36.790211                                                 
C 42.791852 50.706912 30.698537                                                 
C 44.079516 48.288100 36.818427                                                 
C 41.373879 48.176430 42.968303                                                 
C 41.355059 48.083382 49.126141                                                 
C 42.717060 50.502136 42.972751                                                 
C 44.044290 48.086395 49.126776                                                 
C 29.392337 55.413782 30.621027                                                 
C 29.274722 55.272967 36.990271                                                 
C 30.685656 57.713084 30.727536                                                 
C 31.991537 55.283670 36.942043                                                 
C 33.381065 53.070661 30.452558                                                 
C 33.323494 52.950508 36.972223                                                 
C 34.724753 55.385080 30.615101                                                 
C 36.015145 52.941388 36.869095                                                 
C 29.317724 55.181805 42.967120                                                 
C 29.218930 55.049399 49.074191                                                 
C 30.600076 57.473190 42.952564                                                 
C 31.938291 55.067139 49.103835                                                 
C 33.314794 52.830454 42.994878                                                 
C 33.278899 52.735114 49.116184                                                 
C 34.653410 55.156048 42.975208                                                 
C 35.976678 52.738152 49.125756                                                 
C 37.414893 50.712668 30.547479                                                 
C 37.356257 50.611876 36.843872                                                 
C 38.758548 53.040892 30.656008                                                 
C 40.046700 50.612360 36.797628                                                 
C 37.345820 50.502151 42.971602                                                 
C 37.320330 50.409607 49.125617                                                 
C 38.687209 52.827326 42.969769                                                 
C 40.010951 50.411842 49.128274                                                 
C 41.454142 43.714577 30.639697                                                 
C 41.398994 43.632257 36.783807                                                 
C 42.795204 46.048485 30.666587                                                 
C 44.084245 43.634733 36.811834                                                 
C 41.372477 43.523458 42.958229                                                 
C 41.349103 43.426743 49.117172                                                 
C 42.716024 45.850221 42.969149                                                 
C 44.036189 43.428632 49.123135                                                 
C 29.376734 50.744452 30.157446                                                 
C 29.244858 50.634675 37.310405                                                 
C 30.667103 53.081136 30.389129                                                 
C 31.974818 50.626216 37.126880                                                 
C 33.390534 48.393076 30.277028                                                 
C 33.319740 48.285848 37.050982                                                 
C 34.722167 50.726544 30.392233                                                 
C 36.013652 48.282407 36.876858                                                 
C 29.317605 50.501680 43.012612                                                 
C 29.221498 50.407332 49.087104                                                 
C 30.598983 52.827787 43.000918                                                 
C 31.936605 50.407619 49.111158                                                 
C 33.315240 48.173522 42.998678                                                 
C 33.277805 48.079789 49.110962                                                 
C 34.651927 50.502277 42.990935                                                 
C 35.974190 48.079304 49.121254                                                 
C 37.421961 46.049149 30.542628                                                 
C 37.358913 45.956161 36.808724                                                 
C 38.759183 48.383144 30.579728                                                 
C 40.050307 45.956216 36.775248                                                 
C 37.345386 45.847192 42.956550                                                 
C 37.315153 45.753890 49.116105                                                 
C 38.686816 48.176690 42.964318                                                 
C 40.007334 45.753251 49.123173                                                 
C 45.450608 32.062971 30.755717                                                 
C 45.506241 31.995708 36.844090                                                 
C 46.866868 34.379252 30.718515                                                 
C 48.082944 31.994142 36.849374                                                 
H 49.132697 30.210787 36.868544                                                 
H 50.529497 32.628988 30.820856                                                 
C 45.488366 36.723430 30.670523                                                 
C 45.449792 36.653537 36.824663                                                 
C 46.837173 39.053107 30.667047                                                 
C 48.123817 36.653478 36.829304                                                 
C 49.493554 34.418625 30.752871                                                 
C 49.499008 34.309734 36.839943                                                 
C 50.887011 36.708729 30.720733                                                 
C 52.131351 34.348747 36.842768                                                 
C 45.341064 31.885682 42.866480                                                 
C 45.432049 31.773452 48.977863                                                 
C 46.764586 34.198388 42.907332                                                 
C 48.010265 31.772352 48.997935                                                 
H 49.057940 29.988958 48.944333                                                 
H 50.420837 32.439407 42.889102                                                 
C 45.391759 36.543527 42.927793                                                 
C 45.381844 36.436903 49.074195                                                 
C 46.745218 38.866792 42.950584                                                 
C 48.058711 36.437379 49.084342                                                 
C 49.389224 34.232450 42.911507                                                 
C 49.431769 34.088881 49.050550                                                 
C 50.788568 36.519706 42.934275                                                 
C 52.063771 34.126198 49.049089                                                 
H 53.167903 32.555812 36.855804                                                 
H 53.097298 32.331655 49.006988                                                 
C 57.588583 39.106522 30.759854                                                 
C 57.531670 38.950171 36.842941                                                 
C 58.929612 41.366218 30.734764                                                 
C 60.246042 39.022078 36.858995                                                 
C 57.494791 38.910676 42.926979                                                 
C 57.471192 38.727651 49.061687                                                 
C 58.838229 41.166359 42.932665                                                 
C 60.183915 38.794360 49.015206                                                 
C 45.482364 46.048547 30.670956                                                 
C 45.425776 45.962786 36.824884                                                 
C 46.824817 48.377522 30.673767                                                 
C 48.112993 45.963031 36.825259                                                 
C 49.513031 43.719957 30.671525                                                 
C 49.459669 43.637414 36.822292                                                 
C 50.854412 46.047242 30.671867                                                 
C 52.148227 43.638401 36.822014                                                 
C 45.402150 45.850818 42.973621                                                 
C 45.384939 45.757818 49.126225                                                 
C 46.745277 48.176355 42.974920                                                 
C 48.074799 45.758471 49.127243                                                 
C 49.430036 43.524906 42.969688                                                 
C 49.414834 43.428741 49.124004                                                 
C 50.773757 45.849014 42.971897                                                 
C 52.102237 43.428290 49.121231                                                 
C 53.549067 41.392886 30.688420                                                 
C 53.496350 41.305986 36.825831                                                 
C 54.891948 43.716237 30.680188                                                 
C 56.185702 41.311320 36.831641                                                 
C 53.461108 41.197307 42.956801                                                 
C 53.443714 41.089413 49.109222                                                 
C 54.806355 43.518830 42.960197                                                 
C 56.131307 41.090946 49.094114                                                 
H 57.220292 34.896744 36.856909                                                 
H 58.624653 37.317185 30.830851                                                 
H 57.150846 34.670414 49.011605                                                 
H 58.530368 37.120458 42.908237                                                 
C 45.487115 41.386693 30.654462                                                 
C 45.434600 41.310186 36.818913                                                 
C 46.828868 43.717077 30.663082                                                 
C 48.117097 41.311215 36.822623                                                 
C 49.520037 39.059929 30.685938                                                 
C 49.469001 38.979936 36.825802                                                 
C 50.862426 41.385947 30.677744                                                 
C 52.153728 38.982033 36.828418                                                 
C 45.398766 41.197724 42.961385                                                 
C 45.380998 41.098478 49.114991                                                 
C 46.745718 43.524060 42.970587                                                 
C 48.065505 41.099821 49.118531                                                 
C 49.428470 38.870290 42.951980                                                 
C 49.410748 38.764738 49.104185                                                 
C 50.776502 41.191535 42.962079                                                 
C 52.097223 38.765751 49.101511                                                 
C 53.541218 36.761336 30.752074                                                 
C 53.513396 36.633510 36.837763                                                 
C 54.909203 39.039014 30.722909                                                 
C 56.184531 36.689802 36.843485                                                 
C 53.442809 36.569922 42.927716                                                 
C 53.451126 36.413132 49.073077                                                 
C 54.815205 38.843699 42.939892                                                 
C 56.120551 36.466011 49.054147                                                 
H 61.267907 37.223232 36.878475                                                 
H 62.661925 39.645780 30.852616                                                 
H 61.201490 36.995774 48.959853                                                 
H 62.565763 39.439462 42.892472                                                 
H 28.284158 61.693499 36.863139                                                 
H 28.194176 61.469724 48.946801                                                 
C 29.399605 60.102187 30.822896                                                 
C 29.292588 59.889464 36.866084                                                 
C 30.691886 62.336710 30.805368                                                 
C 32.003648 59.958651 36.859083                                                 
C 33.394459 57.725060 30.694682                                                 
C 33.340661 57.595163 36.866982                                                 
C 34.739898 60.042575 30.733851                                                 
C 36.029904 57.600265 36.832974                                                 
H 29.672507 64.135629 30.831284                                                 
H 32.322848 64.009225 36.891517                                                 
C 33.401822 62.404330 30.759151                                                 
C 33.352898 62.213977 36.863457                                                 
C 34.757446 64.670016 30.740662                                                 
C 36.031784 62.277544 36.856474                                                 
C 29.309446 59.862842 42.928508                                                 
C 29.212498 59.670920 49.016502                                                 
C 30.596795 62.095657 42.930434                                                 
C 31.930805 59.748198 49.061308                                                 
C 33.317510 57.489254 42.962520                                                 
C 33.278288 57.386153 49.098022                                                 
C 34.654059 59.806792 42.957197                                                 
C 35.971264 57.396869 49.115833                                                 
H 29.575158 63.894611 42.917734                                                 
H 32.235849 63.797125 48.967303                                                 
C 33.310796 62.167923 42.945172                                                 
C 33.275037 62.007994 49.036402                                                 
C 34.659639 64.428675 42.946509                                                 
C 35.956967 62.074697 49.072651                                                 
C 41.452408 57.695950 30.695439                                                 
C 41.403802 57.591483 36.818214                                                 
C 42.801001 60.024219 30.679612                                                 
C 44.088027 57.592219 36.824930                                                 
C 41.374009 57.480124 42.972030                                                 
C 41.357476 57.394342 49.128369                                                 
C 42.718126 59.806345 42.973483                                                 
C 44.045922 57.396426 49.129343                                                 
C 37.425685 60.041142 30.712539                                                 
C 37.380291 59.921012 36.829028                                                 
C 38.773260 62.363985 30.694176                                                 
C 40.062980 59.926495 36.828554                                                 
C 37.341988 59.812527 42.964718                                                 
C 37.316392 59.720245 49.108584                                                 
C 38.685620 62.135745 42.963948                                                 
C 40.005761 59.727052 49.122572                                                 
C 41.446604 53.038200 30.704503                                                 
C 41.395239 52.937757 36.804347                                                 
C 42.794058 55.365598 30.697868                                                 
C 44.081694 52.938532 36.821507                                                 
C 41.374489 52.827717 42.971262                                                 
C 41.358330 52.739535 49.127711                                                 
C 42.717432 55.153710 42.973557                                                 
C 44.049383 52.741460 49.126335                                                 
C 37.420876 55.375158 30.670364                                                 
C 37.367229 55.264034 36.826760                                                 
C 38.765867 57.698096 30.705841                                                 
C 40.056068 55.266796 36.809310                                                 
C 37.345749 55.156432 42.970018                                                 
C 37.320498 55.063136 49.125620                                                 
C 38.687130 57.479415 42.968819                                                 
C 40.012337 55.067342 49.129991                                                 
C 41.440834 67.032837 30.742743                                                 
C 41.456252 66.886863 36.888789                                                 
C 42.865008 69.345096 30.796776                                                 
C 44.079547 66.919516 36.891508                                                 
C 41.345279 66.805862 42.956432                                                 
C 41.379710 66.687615 49.048752                                                 
C 42.764467 69.120082 42.949469                                                 
C 44.006393 66.723791 49.079738                                                 
H 37.785498 68.799164 30.785186                                                 
H 40.428730 68.679760 36.911687                                                 
H 37.679622 68.561772 42.937917                                                 
H 40.348860 68.478610 48.980542                                                 
C 41.458611 62.360480 30.686653                                                 
C 41.413136 62.248589 36.847638                                                 
C 42.810886 64.683761 30.708391                                                 
C 44.094837 62.250502 36.848171                                                 
C 41.369635 62.137395 42.969026                                                 
C 41.351673 62.050322 49.113571                                                 
C 42.718638 64.461787 42.967006                                                 
C 44.037063 62.054060 49.123534                                                 
H 33.728733 66.469741 30.775544                                                 
H 33.624673 66.221890 42.934951                                                 
C 37.423481 64.720630 30.713981                                                 
C 37.405649 64.551511 36.878685                                                 
C 38.814133 67.005720 30.741026                                                 
C 40.058138 64.601123 36.868275                                                 
C 37.329478 64.484687 42.954414                                                 
C 37.329428 64.350669 49.044287                                                 
C 38.713990 66.768706 42.951168                                                 
C 39.983974 64.400260 49.079012                                                 
C 61.645620 41.444209 30.780636                                                 
C 61.531341 41.255171 36.863821                                                 
C 62.933809 43.677319 30.767371                                                 
H 63.597697 41.276761 36.887280                                                 
C 61.638325 46.064240 30.723040                                                 
C 61.522489 45.934689 36.857184                                                 
C 62.921610 48.363199 30.728289                                                 
H 63.590610 45.932538 36.876739                                                 
H 65.001681 43.695321 30.821747                                                 
C 61.553022 41.241191 42.913866                                                 
C 61.477393 41.024664 49.001732                                                 
C 62.845246 43.470801 42.914667                                                 
H 63.543698 41.040898 48.930773                                                 
C 61.552301 45.858474 42.932602                                                 
C 61.480653 45.707966 49.025210                                                 
C 62.837160 48.156021 42.931857                                                 
H 63.548221 45.698636 48.952113                                                 
H 64.914214 43.483203 42.894320                                                 
C 61.639637 55.345269 30.737405                                                 
C 61.522638 55.292018 36.880526                                                 
C 62.934102 57.732940 30.789035                                                 
H 63.590846 55.293673 36.898839                                                 
H 64.992015 53.046185 30.772574                                                 
C 61.555791 55.137484 42.960213                                                 
C 61.538924 55.059710 49.086306                                                 
C 62.849161 57.525160 42.942568                                                 
H 63.602834 55.048649 48.938793                                                 
H 64.909559 52.838528 42.919225                                                 
C 61.635536 50.704811 30.712231                                                 
C 61.524390 50.613212 36.860854                                                 
C 62.922328 53.046435 30.734864                                                 
H 64.991401 48.363443 30.767403                                                 
C 61.552431 50.497624 42.947558                                                 
C 61.506253 50.386180 49.055553                                                 
C 62.838907 52.838890 42.945783                                                 
H 64.907754 48.153175 42.913257                                                 
H 41.819764 71.129368 30.851000                                                 
H 44.455166 71.013950 36.956561                                                 
H 41.717585 70.904122 42.930704                                                 
H 44.371266 70.817495 48.978642                                                 
C 45.442717 69.341426 30.816966                                                 
C 45.504867 69.232577 36.931374                                                 
H 46.498988 71.120332 30.895418                                                 
C 48.082555 69.236199 36.946186                                                 
C 49.489650 66.986992 30.800810                                                 
C 49.500176 66.919423 36.920795                                                 
H 50.523293 68.779250 30.877158                                                 
C 52.131878 66.882254 36.938565                                                 
H 49.131110 71.022051 36.982580                                                 
C 45.341371 69.118464 42.954783                                                 
C 45.424652 69.039375 49.046797                                                 
H 46.393058 70.897870 42.940884                                                 
C 48.004016 69.048942 49.070452                                                 
C 49.390160 66.772390 42.972018                                                 
C 49.431908 66.739843 49.116578                                                 
H 50.420997 68.565520 42.959604                                                 
C 52.063830 66.716881 49.131815                                                 
H 49.045077 70.835834 49.022515                                                 
H 57.220469 66.332150 36.970292                                                 
H 57.151074 66.208301 49.070799                                                 
H 53.166825 68.676547 36.971332                                                 
H 53.081750 68.517313 49.093913                                                 
C 57.588019 62.301615 30.800028                                                 
C 57.531984 62.278419 36.919345                                                 
H 58.622221 64.091704 30.875561                                                 
C 60.245948 62.205810 36.942862                                                 
C 57.499558 62.095360 42.974538                                                 
C 57.503995 62.140917 49.141596                                                 
H 58.534551 63.886665 42.940754                                                 
C 60.221086 62.046855 48.902348                                                 
C 53.539489 64.645984 30.797309                                                 
C 53.514986 64.596645 36.917707                                                 
C 56.184791 64.539618 36.938306                                                 
C 53.445028 64.437279 42.980337                                                 
C 53.464357 64.440717 49.176749                                                 
C 56.130623 64.408787 49.170241                                                 
C 61.645174 59.965589 30.811675                                                 
C 61.531418 59.972348 36.925482                                                 
H 62.659851 61.765347 30.887221                                                 
H 63.597822 59.951026 36.946080                                                 
H 65.001845 57.717191 30.839676                                                 
H 61.267403 64.004758 36.976628                                                 
C 61.558284 59.757502 42.941696                                                 
C 61.528850 59.779668 48.858941                                                 
H 62.575252 61.557347 42.899988                                                 
H 63.575543 59.781957 48.570572                                                 
H 64.918261 57.510904 42.901245                                                 
H 61.248652 63.824604 48.651500                                                 
H 63.571666 50.372995 48.971881                                                 
H 36.291462 34.669412 48.924290                                                 
H 36.293584 66.139385 48.974796                                                 
H 27.249094 50.501338 42.983050                                                 
H 54.475645 66.230494 42.961899                                                 
H 63.592226 50.613075 36.878917                                                 
H 54.475770 34.778037 42.908653                                                 
H 36.374623 34.871111 36.839257                                                 
H 36.375467 66.344550 36.896414                                                 
H 54.571825 66.437231 30.872388                                                 
H 27.309131 50.740824 30.047937                                                 
H 54.574743 34.971162 30.821836                                                 
Li 31.872826 41.198903 27.454834                                                
Li 30.108934 48.364794 33.869029                                                
Li 59.198653 59.881783 52.390566                                                
Li 35.744280 37.244040 33.744600                                                
Li 62.240040 58.740600 27.495600                                                
%ENDBLOCK POSITIONS_ABS                                                         

--------------------------------------------------------------------------------
-------------------------------- END INPUT FILE --------------------------------
--------------------------------------------------------------------------------


 
<<<<<<<<<<<<<<<<<<<<<<<<<<<<<<<<< Full system >>>>>>>>>>>>>>>>>>>>>>>>>>>>>>>>>>
<<<<<<<<<<<<<<<<<<<<<<<<<<< PAW Dataset information >>>>>>>>>>>>>>>>>>>>>>>>>>>
File: ~/pp/paw/c_pbe_abinit.paw; rc = 1.25 bohr; shape type =  3; rshape = 1.25 bohr;
  Atomic number:  6;  ionic charge:  4.000000
    Partial Wave 1: l = 0
    Partial Wave 2: l = 0
    Partial Wave 3: l = 1
    Partial Wave 4: l = 1
  Core charge supplied for Nonlinear Core Corrections
File: ~/pp/paw/h_pbe_abinit.paw; rc = 0.90 bohr; shape type =  3; rshape = 0.90 bohr;
  Atomic number:  1;  ionic charge:  1.000000
    Partial Wave 1: l = 0
    Partial Wave 2: l = 0
File: ~/pp/paw/li_pbe_abinit.paw; rc = 1.42 bohr; shape type =  3; rshape = 1.42 bohr;
  Atomic number:  3;  ionic charge:  3.000000
    Partial Wave 1: l = 0
    Partial Wave 2: l = 0
    Partial Wave 3: l = 0
    Partial Wave 4: l = 1
    Partial Wave 5: l = 1
<<<<<<<<<<<<<<<<<<<<<<<<<<<<<<<<<<<<<<< >>>>>>>>>>>>>>>>>>>>>>>>>>>>>>>>>>>>>>>

-------------------------- Atom counting information ---------------------------
Symbol    Natoms    Nngwfs    Nprojs
  C        484      1936      3872
  H        108       108       216
  Li         5        25        45
.......   ......    ......    ......
Totals:    597      2069      4133
--------------------------------------------------------------------------------

=============================== PSINC grid sizes ===============================
                      Simulation cell:  189 x 189 x 189
                              FFT-box:  117 x 117 x 117
                                  PPD:    7 x   7 x   1
Grid space d1=  0.499927596032a0 (KE cutoff=  30.39413Eh = 827.06648eV)
Grid space d2=  0.499927596032a0 (KE cutoff=  30.39413Eh = 827.06648eV)
Grid space d3=  0.499927596032a0 (KE cutoff=  30.39413Eh = 827.06648eV)
================================================================================

********************* Fourier parallelisation information **********************
       Coarse grid (whole simulation cell) dimensions:    189   189   189
          Real-space ('12') slabs/node (min max mean):     15    16    15
         Recip-space ('23') slabs/node (min max mean):      7     8     7
********************************************************************************

********************* Fourier parallelisation information **********************
       Double grid (whole simulation cell) dimensions:    378   378   378
          Real-space ('12') slabs/node (min max mean):     31    32    31
         Recip-space ('23') slabs/node (min max mean):     15    16    15
********************************************************************************

Atom SCF Calculation for C  : Z (AE atom) =   6 : Z (PS atom) =   4
Config String: 2s2 2p2
Orbitals (num,occ):  2     2.00 2.00
Orbitals   (num,l):  2        0    1
Real-space Grid (nr,dr,rmax): 1377    0.0065406977    9.0000000000
Spherical Bessel Basis (nsws,lmax,cutoff):   37    2  183.0099912382
Confining potential (l,width,scale):  0    3.0000000000  100.0000000000
Confining potential (l,width,scale):  1    3.0000000000  100.0000000000
  1         -5.4350126632   -1.2715272878    4.5135247139   -1.5681949477
  2         -5.3876836850   -1.3562195125    4.4235426751   -1.5380057521
  3         -5.3928844498   -1.3758175853    4.4021699684   -1.5318377811
  4         -5.3988962903   -1.3800385428    4.3975423583   -1.5307324410
  5         -5.4018428823   -1.3823489590    4.3950111904   -1.5301555648
  6         -5.4033571720   -1.3835805046    4.3936635548   -1.5298576834
  7         -5.4041480647   -1.3842324820    4.3929512000   -1.5297032953
  8         -5.4045641108   -1.3845769138    4.3925755232   -1.5296229456
  9         -5.4047838258   -1.3847587737    4.3923775340   -1.5295810042
 10         -5.4049001347   -1.3848548089    4.3922731819   -1.5295590658
 11         -5.4049618018   -1.3849055476    4.3922181562   -1.5295475724
 12         -5.4049945351   -1.3849323732    4.3921891206   -1.5295415432
 13         -5.4050119258   -1.3849465673    4.3921737867   -1.5295383767
 14         -5.4050211723   -1.3849540841    4.3921656816   -1.5295367119
 15         -5.4050260920   -1.3849580684    4.3921613935   -1.5295358358
 16         -5.4050287113   -1.3849601822    4.3921591228   -1.5295353742
 17         -5.4050301068   -1.3849613045    4.3921579192   -1.5295351307
 18         -5.4050308507   -1.3849619010    4.3921572806   -1.5295350022
 19         -5.4050312476   -1.3849622183    4.3921569415   -1.5295349343
 20         -5.4050314594   -1.3849623873    4.3921567612   -1.5295348984
 21         -5.4050315725   -1.3849624773    4.3921566653   -1.5295348794
 22         -5.4050316330   -1.3849625253    4.3921566143   -1.5295348693
Atom SCF converged after  22 iterations to a total energy of     -5.40503163

Atom SCF Calculation for H  : Z (AE atom) =   1 : Z (PS atom) =   1
Config String: 1s1
Orbitals (num,occ):  1     1.00
Orbitals   (num,l):  1        0
Real-space Grid (nr,dr,rmax): 1377    0.0065406977    9.0000000000
Spherical Bessel Basis (nsws,lmax,cutoff):   37    1  183.0099912382
Confining potential (l,width,scale):  0    3.0000000000  100.0000000000
  1         -0.3605254152   -0.2399954029    0.2820952946   -0.2424203210
  2         -0.4156854077   -0.2398249290    0.2871789324   -0.2464796203
  3         -0.4412552402   -0.2379720642    0.2899127187   -0.2499011370
  4         -0.4517265951   -0.2371980236    0.2908966173   -0.2514141636
  5         -0.4557775773   -0.2369735141    0.2911607883   -0.2519713623
  6         -0.4573363459   -0.2369240355    0.2912108681   -0.2521663171
  7         -0.4579443228   -0.2369187864    0.2912112833   -0.2522344454
  8         -0.4581858602   -0.2369215483    0.2912049187   -0.2522587615
  9         -0.4582834939   -0.2369242589    0.2912002081   -0.2522677042
 10         -0.4583235236   -0.2369258837    0.2911975892   -0.2522710965
 11         -0.4583401154   -0.2369267223    0.2911962825   -0.2522724192
 12         -0.4583470483   -0.2369271266    0.2911956643   -0.2522729467
 13         -0.4583499624   -0.2369273145    0.2911953803   -0.2522731607
 14         -0.4583511926   -0.2369274000    0.2911952521   -0.2522732486
 15         -0.4583517136   -0.2369274385    0.2911951948   -0.2522732850
 16         -0.4583519349   -0.2369274556    0.2911951693   -0.2522733002
 17         -0.4583520290   -0.2369274632    0.2911951581   -0.2522733066
Atom SCF converged after  17 iterations to a total energy of     -0.45835203

Atom SCF Calculation for Li : Z (AE atom) =   3 : Z (PS atom) =   3
Config String: 1s2 2s1 2p0
Orbitals (num,occ):  3     2.00 1.00 0.00
Orbitals   (num,l):  3        0    0    1
Real-space Grid (nr,dr,rmax): 1377    0.0065406977    9.0000000000
Spherical Bessel Basis (nsws,lmax,cutoff):   37    2  183.0099912382
Confining potential (l,width,scale):  0    3.0000000000  100.0000000000
Confining potential (l,width,scale):  1    3.0000000000  100.0000000000
  1         -6.0640888065   -4.6655401716    2.5388576516   -0.9989538799
  2         -6.9627542978   -4.0954079129    2.9808988108   -1.1965571426
  3         -7.2692687601   -3.8889996707    3.2029735703   -1.3193883705
  4         -7.3784440298   -3.8322099748    3.2868571989   -1.3711018151
  5         -7.4170278248   -3.8191968371    3.3144974220   -1.3911175539
  6         -7.4303549880   -3.8172386945    3.3228486489   -1.3986896266
  7         -7.4348052089   -3.8175483495    3.3251259310   -1.4015352495
  8         -7.4362242328   -3.8180607346    3.3256233205   -1.4026016384
  9         -7.4366459715   -3.8184145665    3.3256561549   -1.4029998726
 10         -7.4367560626   -3.8186169740    3.3256001574   -1.4031477379
 11         -7.4367765260   -3.8187239825    3.3255481763   -1.4032021548
 12         -7.4367751741   -3.8187782620    3.3255144587   -1.4032219192
 13         -7.4367707398   -3.8188051288    3.3254952336   -1.4032289600
 14         -7.4367680349   -3.8188156035    3.3254870176   -1.4032309087
 15         -7.4367661982   -3.8188217406    3.3254819951   -1.4032318132
 16         -7.4367650112   -3.8188253257    3.3254789583   -1.4032322224
 17         -7.4367642682   -3.8188274151    3.3254771375   -1.4032324006
 18         -7.4367638134   -3.8188286307    3.3254760529   -1.4032324736
 19         -7.4367635392   -3.8188293370    3.3254754103   -1.4032325004
 20         -7.4367633760   -3.8188297469    3.3254750310   -1.4032325080
 21         -7.4367632796   -3.8188299846    3.3254748079   -1.4032325082
Atom SCF converged after  21 iterations to a total energy of     -7.43676328

================================================================================
<<<<<<<<<<<<<<<< Resuming previous ONETEP Geometry Optimisation >>>>>>>>>>>>>>>>
================================================================================

 Geometry Optimisation: output file is "592nano.geom"
 
 Geometry Optimisation: write_hamiltonian parameter over-ridden to T
 Reading continuation file "592nano.continuation" ...done
 Geometry Optimisation: read_tightbox_ngwfs parameter over-ridden to TRUE
 Geometry Optimisation: read_hamiltonian parameter over-ridden to T
 
                           -------------------------------
                                     Cell Contents
                           -------------------------------
 
            xxxxxxxxxxxxxxxxxxxxxxxxxxxxxxxxxxxxxxxxxxxxxxxxxxxxxxxxxxxx
            x  Element    Atom      Absolute co-ordinates of atoms     x
            x            Number        x           y           z       x
            x----------------------------------------------------------x
            x    C         1       45.485582   50.695996   30.678034   x
            x    C         2       45.433602   50.616755   36.815425   x
            x    C         3       46.839496   53.026504   30.697920   x
            x    C         4       48.118970   50.613964   36.825507   x
            x    C         5       49.523232   48.375732   30.688122   x
            x    C         6       49.463868   48.289562   36.825371   x
            x    C         7       50.873782   50.704310   30.692766   x
            x    C         8       52.149128   48.289065   36.833890   x
            x    C         9       45.495881   55.357725   30.704881   x
            x    C        10       45.431063   55.266570   36.824937   x
            x    C        11       46.844812   57.687210   30.710326   x
            x    C        12       48.115987   55.265879   36.830911   x
            x    C        13       49.531563   53.033308   30.701635   x
            x    C        14       49.458856   52.939287   36.831848   x
            x    C        15       50.885163   55.368052   30.692940   x
            x    C        16       52.145137   52.938877   36.836185   x
            x    C        17       45.403374   50.503248   42.960207   x
            x    C        18       45.390742   50.413701   49.106559   x
            x    C        19       46.746160   52.829072   42.966452   x
            x    C        20       48.077974   50.412280   49.117643   x
            x    C        21       49.431867   48.177794   42.965883   x
            x    C        22       49.422626   48.083422   49.111695   x
            x    C        23       50.775677   50.503180   42.973389   x
            x    C        24       52.111239   48.080735   49.123222   x
            x    C        25       45.402987   55.154562   42.966295   x
            x    C        26       45.389676   55.068415   49.120680   x
            x    C        27       46.746432   57.481304   42.976112   x
            x    C        28       48.075824   55.067073   49.145422   x
            x    C        29       49.432310   52.828718   42.975527   x
            x    C        30       49.419756   52.738797   49.141330   x
            x    C        31       50.775153   55.155749   42.986916   x
            x    C        32       52.110693   52.733581   49.160573   x
            x    C        33       57.609200   48.379021   30.664314   x
            x    C        34       57.519409   48.286064   36.831648   x
            x    C        35       58.963821   50.701797   30.643749   x
            x    C        36       60.235095   48.288114   36.839150   x
            x    C        37       57.498974   48.176761   42.964092   x
            x    C        38       57.492618   48.065335   49.125632   x
            x    C        39       58.841313   50.500877   42.967942   x
            x    C        40       60.211528   48.062843   49.098736   x
            x    C        41       53.570711   50.711328   30.681075   x
            x    C        42       53.486962   50.613582   36.835897   x
            x    C        43       54.926644   53.042134   30.658818   x
            x    C        44       56.181268   50.613487   36.833326   x
            x    C        45       53.462563   50.502815   42.976728   x
            x    C        46       53.455934   50.407297   49.146620   x
            x    C        47       54.805733   52.829233   42.984482   x
            x    C        48       56.152791   50.399934   49.149277   x
            x    C        49       57.599049   43.723467   30.694728   x
            x    C        50       57.521471   43.626965   36.829989   x
            x    C        51       58.941764   46.033552   30.678442   x
            x    C        52       60.239031   43.643672   36.838791   x
            x    C        53       57.495940   43.531098   42.948662   x
            x    C        54       57.482084   43.405921   49.089539   x
            x    C        55       58.836895   45.845538   42.951421   x
            x    C        56       60.198325   43.416395   49.062124   x
            x    C        57       53.559495   46.050006   30.683047   x
            x    C        58       53.492226   45.959275   36.833304   x
            x    C        59       54.909750   48.379512   30.673462   x
            x    C        60       56.183101   45.960565   36.830259   x
            x    C        61       53.462289   45.854078   42.964249   x
            x    C        62       53.452493   45.749389   49.110368   x
            x    C        63       54.805137   48.176032   42.968848   x
            x    C        64       56.148903   45.744169   49.111121   x
            x    C        65       57.639087   57.714217   30.597295   x
            x    C        66       57.514198   57.600419   36.854915   x
            x    C        67       58.981618   60.110299   30.701335   x
            x    C        68       60.231361   57.581960   36.872630   x
            x    C        69       57.498919   57.473574   42.979134   x
            x    C        70       57.479091   57.393049   49.055367   x
            x    C        71       58.842218   59.835633   42.963223   x
            x    C        72       60.218635   57.362619   48.982373   x
            x    C        73       45.484870   64.680086   30.722663   x
            x    C        74       45.443584   64.572906   36.873586   x
            x    C        75       46.851500   67.027045   30.754868   x
            x    C        76       48.116782   64.573529   36.887259   x
            x    C        77       49.528407   62.358331   30.712247   x
            x    C        78       49.465163   62.249438   36.870639   x
            x    C        79       50.884174   64.714593   30.744878   x
            x    C        80       52.148195   62.247847   36.880487   x
            x    C        81       45.389585   64.462327   42.976067   x
            x    C        82       45.388923   64.389351   49.128473   x
            x    C        83       46.760761   66.807713   42.977655   x
            x    C        84       48.061474   64.394328   49.164125   x
            x    C        85       49.427999   62.135415   42.993509   x
            x    C        86       49.414785   62.065386   49.181046   x
            x    C        87       50.787412   64.486695   42.994073   x
            x    C        88       52.098470   62.067524   49.184766   x
            x    C        89       53.580105   60.040875   30.679982   x
            x    C        90       53.490681   59.924424   36.863318   x
            x    C        91       54.930282   62.413226   30.713095   x
            x    C        92       56.178174   59.918310   36.867258   x
            x    C        93       53.463157   59.807598   42.998066   x
            x    C        94       53.434137   59.736143   49.162359   x
            x    C        95       54.816935   62.162891   42.991426   x
            x    C        96       56.131454   59.727843   49.075412   x
            x    C        97       57.626212   53.034633   30.618185   x
            x    C        98       57.517719   52.941095   36.837069   x
            x    C        99       58.986438   55.377465   30.583928   x
            x    C       100       60.233582   52.935591   36.846767   x
            x    C       101       57.499999   52.826175   42.978712   x
            x    C       102       57.493722   52.726318   49.138810   x
            x    C       103       58.839373   55.156721   42.974454   x
            x    C       104       60.221899   52.712864   49.100011   x
            x    C       105       45.495742   60.017615   30.712823   x
            x    C       106       45.435006   59.918366   36.839803   x
            x    C       107       46.843099   62.354473   30.714280   x
            x    C       108       48.116973   59.918408   36.848723   x
            x    C       109       49.539108   57.693343   30.699444   x
            x    C       110       49.459257   57.592033   36.843237   x
            x    C       111       50.888514   60.033066   30.692968   x
            x    C       112       52.145994   57.591575   36.848226   x
            x    C       113       45.399131   59.807284   42.974786   x
            x    C       114       45.387598   59.727377   49.134079   x
            x    C       115       46.744660   62.138651   42.982875   x
            x    C       116       48.072917   59.728250   49.165372   x
            x    C       117       49.431085   57.480070   42.987479   x
            x    C       118       49.416431   57.398384   49.168397   x
            x    C       119       50.777211   59.813520   42.996814   x
            x    C       120       52.102865   57.395362   49.174725   x
            x    C       121       53.582582   55.375860   30.667522   x
            x    C       122       53.486059   55.268429   36.841859   x
            x    C       123       54.929076   57.715437   30.637369   x
            x    C       124       56.178952   55.267137   36.841571   x
            x    C       125       53.463462   55.152160   42.991229   x
            x    C       126       53.450129   55.063413   49.165534   x
            x    C       127       54.808727   57.484881   42.993495   x
            x    C       128       56.143339   55.048487   49.139953   x
            x    H       129       27.285410   41.380457   30.991417   x
            x    H       130       28.281254   39.581752   36.884919   x
            x    H       131       27.248682   41.163436   42.914141   x
            x    H       132       28.205983   39.358572   48.949122   x
            x    H       133       41.852884   30.258970   30.751809   x
            x    C       134       42.884196   32.050608   30.697900   x
            x    H       135       44.482505   30.219547   36.814202   x
            x    H       136       41.715240   30.102068   42.826497   x
            x    C       137       42.764412   31.884414   42.860181   x
            x    H       138       44.387188   30.005920   48.937326   x
            x    H       139       29.583264   37.306084   30.887676   x
            x    C       140       30.636846   39.068723   30.643940   x
            x    H       141       32.331648   37.233133   37.297428   x
            x    H       142       33.681999   34.868522   29.862827   x
            x    C       143       34.713743   36.654548   29.991854   x
            x    H       144       29.579377   37.110946   42.834522   x
[...]
 C   477 -- C   485       -0.10      0.00      5.39072
 C    92 -- C   564       -0.10      0.00      5.39073
 C   285 -- C   407       -0.10     -0.00      5.39075
 C    99 -- C   121       -0.10      0.00      5.39077
 C     1 -- C   277       -0.10      0.00      5.39081
 C   330 -- C   394       -0.10      0.00      5.39090
 C    35 -- C    41       -0.10     -0.00      5.39098
 C    15 -- C    89       -0.10     -0.00      5.39115
 C   301 -- C   447       -0.10     -0.00      5.39160
 C   211 -- C   315       -0.10      0.00      5.39165
 C   377 -- C   391       -0.09      0.00      5.39212
 C   262 -- C   292       -0.10      0.00      5.39212
 C    84 -- C   567       -0.10      0.00      5.39222
 C   103 -- C   525       -0.10     -0.00      5.39222
 C   206 -- C   292       -0.10      0.00      5.39277
 C   289 -- C   455       -0.10      0.00      5.39289
 C    79 -- C    89       -0.09      0.00      5.39294
 C   211 -- C   221       -0.10      0.00      5.39305
 C   257 -- C   267       -0.10      0.00      5.39324
 C   182 -- C   220       -0.09      0.00      5.39355
 C     9 -- C   245       -0.09      0.00      5.39367
 C    36 -- C    50       -0.09     -0.00      5.39370
 C   256 -- C   290       -0.09     -0.00      5.39381
 C    74 -- C   488       -0.09      0.00      5.39412
 C   319 -- C   361       -0.09      0.00      5.39473
 C   277 -- C   299       -0.09      0.00      5.39500
 C   191 -- C   221       -0.09      0.00      5.39582
 C   313 -- C   319       -0.09     -0.00      5.39627
 C   327 -- C   333       -0.09      0.00      5.39636
 C   293 -- C   421       -0.09      0.00      5.39665
 C   254 -- C   284       -0.09     -0.00      5.39678
 C    53 -- C   395       -0.09      0.00      5.39680
 C    40 -- C    54       -0.09     -0.00      5.39784
 C   186 -- C   192       -0.09     -0.00      5.39807
 C    81 -- C    87       -0.09      0.00      5.39807
 C    40 -- C   102       -0.09      0.00      5.39809
 C   205 -- C   207       -0.09     -0.00      5.39817
 C    77 -- C    91       -0.09      0.00      5.39824
 C    51 -- C   521       -0.09      0.00      5.39857
 C   422 -- C   430       -0.09      0.00      5.39867
 C   289 -- C   299       -0.10     -0.00      5.39889
 C    73 -- C    79       -0.09     -0.00      5.39904
 C    66 -- C   100       -0.09      0.00      5.39961
 C   242 -- C   328       -0.09     -0.00      5.39967
 C   202 -- C   208       -0.09      0.00      5.40010
 C    82 -- C   492       -0.09     -0.00      5.40010
 C    69 -- C    95       -0.09     -0.00      5.40211
 C    49 -- C   391       -0.09      0.00      5.40322
 C   221 -- C   243       -0.09      0.00      5.40337
 C   185 -- C   299       -0.09      0.00      5.40343
 C   186 -- C   212       -0.09      0.00      5.40502
 C   237 -- C   275       -0.09      0.00      5.40607
 C   188 -- C   286       -0.08      0.00      5.40783
 C    97 -- C   123       -0.09      0.00      5.41034
 C    96 -- C   567       -0.09      0.00      5.41286
 C   181 -- C   287       -0.08      0.00      5.41295
 C   253 -- C   413       -0.09     -0.00      5.41311
 C    99 -- C   521       -0.09      0.00      5.41319
 C    94 -- C   128       -0.09     -0.00      5.41355
 C   285 -- C   287       -0.09      0.00      5.41478
 C   230 -- C   318       -0.09     -0.00      5.41484
 C    52 -- C   338       -0.09     -0.00      5.41592
 C   339 -- C   497       -0.09     -0.00      5.41642
 C   252 -- C   406       -0.09     -0.00      5.41659
 C   143 -- C   219       -0.07      0.00      5.41688
 C   466 -- C   538       -0.09     -0.00      5.41783
 C   227 -- C   309       -0.09     -0.00      5.41791
 C   193 -- C   219       -0.09     -0.00      5.41878
 C   229 -- C   235       -0.09     -0.00      5.41926
 C   231 -- C   323       -0.09     -0.00      5.41953
 C   220 -- C   238       -0.09      0.00      5.41960
 C   261 -- C   427       -0.09      0.00      5.42026
 C    83 -- C   467       -0.09     -0.00      5.42033
 C   343 -- C   506       -0.09     -0.00      5.42053
 C   470 -- C   547       -0.09     -0.00      5.42076
 C    75 -- C   463       -0.09     -0.00      5.42130
 C   197 -- C   199       -0.09     -0.00      5.42145
 C    56 -- C   342       -0.09     -0.00      5.42215
 C   234 -- C   332       -0.09      0.00      5.42308
 C   182 -- C   188       -0.09     -0.00      5.42316
 C   260 -- C   420       -0.09      0.00      5.42326
 C   198 -- C   204       -0.09     -0.00      5.42454
 C    68 -- C   556       -0.09     -0.00      5.42494
 C    65 -- C    91       -0.09      0.00      5.42525
 C    70 -- C   104       -0.09      0.00      5.42536
 C   189 -- C   255       -0.09      0.00      5.42638
 C    71 -- C   516       -0.09     -0.00      5.42671
 C   183 -- C   237       -0.08      0.00      5.43270
 C   190 -- C   284       -0.08      0.00      5.43540
 C   189 -- C   191       -0.08      0.00      5.45524
 C   185 -- C   235       -0.08      0.00      5.46621
 C    72 -- C   560       -0.07     -0.00      5.49213
 C    67 -- C   511       -0.07     -0.00      5.50073
 C   181 -- C   183       -0.08     -0.00      5.50481
 C   238 -- Li  596       -0.05     -0.00      5.59991
 C   150 -- Li  596       -0.06     -0.00      5.62068
 C   236 -- C   239       -0.04     -0.00      5.63589
=============================================================


============== Orbital energy and occupancy information for spin 1 =============

      Total number of orbitals:    2069
        Occupancy sum (kernel):    1030.000000001
   Occupancy sum (eigenvalues):    1030.000000001
                 HOMO-LUMO gap:       0.001943211 Eh
                 Mid-gap level:      -0.091403003 Eh

                        Orbital | Energy (Eh) | Occupancy
                            1    -1.908435070   1.0000000
                        .......   ...........   .........
                         1022    -0.138083210   0.9999985
                         1023    -0.135853285   0.9999969
                         1024    -0.131420527   0.9999876
                         1025    -0.126183580   0.9999353
                         1026    -0.125685750   0.9999243
                         1027    -0.122202247   0.9997725
                         1028    -0.108931060   0.9851884
                         1029    -0.101485999   0.8637173
                         1030    -0.095774389   0.5107076
                         1031    -0.092374608   0.2629155
                        ....... -- gap at 0K -- .........
                         1032    -0.090431398   0.1618679
                         1033    -0.087795294   0.0775018
                         1034    -0.086941565   0.0602956
                         1035    -0.084799106   0.0315857
                         1036    -0.083463007   0.0209417
                         1037    -0.081021239   0.0097974
                         1038    -0.079722216   0.0065219
                         1039    -0.079364104   0.0058286
                         1040    -0.075084145   0.0015151
                         1041    -0.071829798   0.0005427
                        .......   ...........   .........
                         2069     0.783568154   0.0000000

================================================================================

============== Orbital energy and occupancy information for spin 2 =============

      Total number of orbitals:    2069
        Occupancy sum (kernel):    1029.000000000
   Occupancy sum (eigenvalues):    1029.000000000
                 HOMO-LUMO gap:       0.005260745 Eh
                 Mid-gap level:      -0.097490724 Eh

                        Orbital | Energy (Eh) | Occupancy
                            1    -1.908405530   1.0000000
                        .......   ...........   .........
                         1020    -0.140313483   0.9999980
                         1021    -0.138189411   0.9999961
                         1022    -0.137632619   0.9999954
                         1023    -0.135619655   0.9999912
                         1024    -0.130770070   0.9999594
                         1025    -0.125842791   0.9998076
                         1026    -0.125360185   0.9997759
                         1027    -0.121483371   0.9992382
                         1028    -0.108093200   0.9503049
                         1029    -0.100121096   0.6067281
                        ....... -- gap at 0K -- .........
                         1030    -0.094860351   0.2265725
                         1031    -0.091587436   0.0943695
                         1032    -0.089535423   0.0516929
                         1033    -0.087222589   0.0255896
                         1034    -0.086490626   0.0204188
                         1035    -0.084353366   0.0105014
                         1036    -0.082842268   0.0065426
                         1037    -0.080544091   0.0031776
                         1038    -0.079416455   0.0022277
                         1039    -0.078976472   0.0019393
                        .......   ...........   .........
                         2069     0.783585214   0.0000000

================================================================================

===================== Writing canonical molecular orbitals =====================
    Spin 1
| Orbital  Energy (eV)  Norm     |
| HOMO     -2.51364100  1.000000 | Writing "592nano_HOMO_UP.cube" ... done
Writing "592nano_HOMO_UP.dx" ... done
| LUMO     -2.46076354  1.000000 | Writing "592nano_LUMO_UP.cube" ... done
Writing "592nano_LUMO_UP.dx" ... done
================================================================================

===================== Writing canonical molecular orbitals =====================
    Spin 2
| Orbital  Energy (eV)  Norm     |
| HOMO     -2.72443365  1.000000 | Writing "592nano_HOMO_DN.cube" ... done
Writing "592nano_HOMO_DN.dx" ... done
| LUMO     -2.58128151  1.000000 | Writing "592nano_LUMO_DN.cube" ... done
Writing "592nano_LUMO_DN.dx" ... done
================================================================================
 
=============== Density of States (DOS) calculation for UP spin ================
Writing "592nano_UP_DOS.txt" ...  done
================================================================================
 
============== Density of States (DOS) calculation for DOWN spin ===============
Writing "592nano_DN_DOS.txt" ...  done
================================================================================
 
Writing bands to file "592nano.val_bands" ... done
 
================ Projected Density of States (pDOS) calculation ================
 
Constructing AM resolved functions  ...... done
Writing NGWF plot files in formats: CUBE DX ...  done
 
Performing overlap integrals ...  done
 
Computing pDOS weights ...  done
 
All bands spilling parameter =   4.26 %
Occupancy-weighted spilling parameter =   0.98 %
 
 => Outputting data for OptaDOS <=
 
Writing pDOS weights to file "592nano.val_pdos_bin" ... done
 
Writing band gradients to file "592nano.val_dome_bin" ... done
 
Writing Castep output cell file to "592nano-out.cell" ... done
 
 => Computing Gaussian smeared pDOS for UP spin<= 
Writing "592nano_UP_PDOS.txt" ...  done
 
 => Computing Gaussian smeared pDOS for DOWN spin<= 
Writing "592nano_DN_PDOS.txt" ...  done
 
 => Computing Occupancy-weighted Gaussian smeared pDOS for UP spin<= 
Writing "592nano_occ_UP_PDOS.txt" ...  done
  => Band centres for UP spin channel: 
 S band centre of group 1:  -14.452535 eV
 P band centre of group 1:   -7.691301 eV
  Band centres for UP spin channel done. <= 
  => Integrated number of electrons in each AM band for UP spin channel: 
 S num electrons of group 1:  270.270222
 P num electrons of group 1:  749.633338
  Integrated number of electrons for UP spin channel done. <= 
 
 => Computing Occupancy-weighted Gaussian smeared pDOS for DOWN spin<= 
Writing "592nano_occ_DN_PDOS.txt" ...  done
  => Band centres for DOWN spin channel: 
 S band centre of group 1:  -14.449806 eV
 P band centre of group 1:   -7.698531 eV
  Band centres for DOWN spin channel done. <=
  => Integrated number of electrons in each AM band for DOWN spin channel: 
 S num electrons of group 1:  270.262218
 P num electrons of group 1:  748.654134
  Integrated number of electrons for DOWN spin channel done. <=
================================================================================

================================= Core Density =================================
               Core den box size:   21 x  21 x  21
================================================================================
======================= Empirical dispersion information =======================
Model : Grimme D2
================================================================================

------------------------------ TIMING INFORMATION ------------------------------
AVERAGE TIME:   70758.615s on     12 node(s)                                    
TOTAL TIME:     70758.617s on     12 node(s)                                    
================= AVERAGE TIMINGS FROM ALL NODES (CUMULATIVE) ==================
|| TAG                                    #calls    cpu time   %total  Gflops ||
|| linalg_invert_sym_matrix             :     4        0.00s   0.000%  ------ || (1 nodes only)
|| work_imbalance                       :     1        0.00s   0.000%  ------ ||
|| paw_sphere_density_on_grid           :     1        0.12s   0.000%  ------ ||
|| paw_dij_hartree                      :   595        0.20s   0.000%  ------ ||
|| ewald_calculate_forces_realspace     :     8        0.20s   0.000%  ------ ||
|| ngwfs_initialise_from_radial         :     1        0.22s   0.000%  ------ ||
|| paw_tcore_density                    :     8        0.27s   0.000%  ------ ||
|| sparse_set_to_garbage                :   402        0.36s   0.001%  ------ ||
|| paw_dataset_init                     :     3        0.46s   0.001%  ------ ||
|| basis_extract_function_from_box      : 10345        0.71s   0.001%  ------ ||
|| restart_hamiltonian_read             :     8        0.95s   0.001%  ------ ||
|| dense_normal_eigensolve              :     1        1.14s   0.002%  ------ ||
|| paw_tcore_hartree_on_grid            :     8        1.71s   0.002%  ------ ||
|| restart_hamiltonian_write            :    34        2.87s   0.004%  ------ ||
|| restart_kernel_write                 :    34        3.34s   0.005%  ------ ||
|| augmentation_density_forces          :     8        4.57s   0.006%  ------ ||
|| sparse_init                          :     8        5.94s   0.008%  ------ ||
|| ewald_calculate_energy               :     8        7.14s   0.010%  ------ ||
|| sw_init                              :     1        7.48s   0.011%  ------ ||
|| density_init_guess_real              :     8        8.28s   0.012%  ------ ||
|| paw_species_calc_proj_prec_mat       :     8       14.58s   0.021%  ------ ||
|| pseudo_make_structure_factor         :     8       17.16s   0.024%  ------ ||
|| ewald_calculate_forces_recipspace    :     8       19.67s   0.028%  ------ ||
|| ewald_calculate_forces               :     8       20.06s   0.028%  ------ ||
|| paw_nlcc_calculate_forces            :     8       22.33s   0.032%  ------ ||
|| sparse_embed_hotelling_invert_embed  :    50       28.09s   0.040%  ------ ||
|| integrals_grad                       :     8       30.39s   0.043%  ------ ||
|| nonsc_forces_ngwfs_calc              :     8       30.40s   0.043%  ------ ||
|| augmentation_screen_dij              :   447       54.46s   0.077%  ------ ||
|| sparse_trace                         : 10506       64.33s   0.091%  ------ ||
|| paw_tcore_hartree_calc_forces        :     8       64.85s   0.092%  ------ ||
|| restart_ngwfs_tightbox_input         :     8       74.29s   0.105%  ------ ||
|| ngwf_gradient_coeffs                 :    26       74.80s   0.106%  ------ ||
|| eigenstates_pdos                     :     1       86.29s   0.122%  ------ ||
|| basis_copy_function_to_box           : 218.3k     112.62s   0.159%  ------ ||
|| function_ops_brappd_ketppd           :    95      126.37s   0.179%  ------ ||
|| restart_ngwfs_tightbox_output        :    20      136.43s   0.193%  ------ ||
|| hartree_on_grid                      :   432      140.47s   0.199%  ------ ||
|| eigenstates_calculate                :     1      162.31s   0.229%  ------ ||
|| fourier_apply_box_pair               : 22943      165.36s   0.234% 274.820 ||
|| projectors_init_fftbox_recip         :   655      200.31s   0.283%  ------ ||
|| projectors_func_grad_ovlp_box        :    24      212.26s   0.300%  ------ ||
|| paw_dij_xc                           :   595      244.62s   0.346%  ------ ||
|| aug_nl_calculate_forces              :     8      264.57s   0.374%  ------ ||
|| augmentation_density_on_grid         :   433      327.37s   0.463%  ------ ||
|| aug_nonlocal_mat                     :   561      348.97s   0.493%  ------ ||
|| projectors_func_ovlp_box             :    51      400.43s   0.566%  ------ ||
|| integrals_kinetic                    :    50      476.01s   0.673%  ------ ||
|| dense_eigensolve                     :   730      526.04s   0.743%  ------ ||
|| fourier_apply_cell_backward          :  3952      532.75s   0.753%  25.819 ||
|| fourier_apply_cell_forward           :  3952      577.06s   0.816%  23.837 ||
|| edft_diag_ngwf_ham                   :   728      820.31s   1.159%  ------ ||
|| sparse_product                       : 10972      931.43s   1.316%  ------ ||
|| cell_grid_extract_box_real           : 112.1k    1066.63s   1.507%  ------ ||
|| hamiltonian_energy_components        :     8     1102.53s   1.558%  ------ ||
|| xc_energy_potential                  :   439     1185.75s   1.676%  ------ ||
|| forces_calculate                     :     8     1192.00s   1.685%  ------ ||
|| basis_dot_function_with_box          : 54.02M    1231.39s   1.740%  ------ ||
|| properties_calculate                 :     1     1365.57s   1.930%  ------ ||
|| edft_apply_smearing_operator         :   364     1440.35s   2.036%  ------ ||
|| cell_grid_deposit_box_real           : 332.0k    1903.63s   2.690%  ------ ||
|| integrals_locpot_mat_els_batch       :  3498     2549.14s   3.603%  ------ ||
|| density_fftbox_deposit_to_cell       : 149.8k    2670.45s   3.774%  ------ ||
|| basis_add_function_to_box            : 150.3M    3258.40s   4.605%  ------ ||
|| density_batch_row_sums               :  4763     5582.58s   7.890%  ------ ||
|| potential_apply_to_ngwf_batch        :  3498     6119.27s   8.648%  ------ ||
|| integrals_locpot_dbl_grid            :   318     8686.20s  12.276%  ------ ||
|| density_fftbox_interpolate_multiply  : 149.8k   10500.57s  14.840%  ------ ||
|| projectors_gradient_batch            :   286    11148.07s  15.755%  ------ ||
|| fourier_apply_box                    : 742.2k   11522.85s  16.285% 401.919 ||
|| projectors_grad_precond_batch        :   286    11859.98s  16.761%  ------ ||
|| density_batch_interp_deposit         :  4763    14969.49s  21.156%  ------ ||
|| density_on_dbl_grid                  :   433    20942.65s  29.597%  ------ ||
|| hamiltonian_lhxc_calculate           :   415    21795.52s  30.803%  ------ ||
|| ngwf_gradient_build_batch            :   286    24895.50s  35.184%  ------ ||
|| ngwf_gradient_batch                  :   286    26800.55s  37.876%  ------ ||
|| edft_calculate                       :    26    29847.67s  42.182%  ------ ||
|| ngwf_gradient_lnv                    :    26    33134.07s  46.827%  ------ ||
|| ngwf_cg_optimise                     :     8    67435.23s  95.303%  ------ ||
|| total_time                           :     1    70758.62s 100.000%  ------ ||
================================================================================
Overhead of generating timer report: 
- 0 ms averaging over threads,
- 2 ms ensuring consistency across MPI ranks,
- 0 ms printing in order.

Job completed: 15-05-2020 23:19 (+0100)

