 +---------------------------------------------------------------+
 |                                                               |
 |        ####### #     # ####### ####### ####### ######         |
 |        #     # ##    # #          #    #       #     #        |
 |        #     # # #   # #          #    #       #     #        |
 |        #     # #  #  # #####      #    #####   ######         |
 |        #     # #   # # #          #    #       #              |
 |        #     # #    ## #          #    #       #              |
 |        ####### #     # #######    #    ####### #              |
 |                                                               |
 |        Linear-Scaling Ab Initio Total Energy Program          |
 |                                                               |
 |          Release for academic collaborators of ODG            |
 |                                             Version 5.3.2.12  |
 |                                                               |
 +---------------------------------------------------------------+
 |                                                               |
 |  Authors:                                                     |
 |  Jacek Dziedzic, Peter D. Haynes, Nicholas D. M. Hine,        |
 |  Arash. A. Mostofi, Mike C. Payne and Chris-Kriton Skylaris   |
 |                                                               |
 |  Contributors:                                                |
 |  J. Aarons, L. Andrinopoulos, P. W. Avraam, R. A. Bell,       |
 |  A. Bhandari, G. A. Bramley, R. J. Charlton, S. J. Clark,     |
 |  R. J. Clements, G. C. Constantinescu, F. Corsetti,           |
 |  N. Corsini, O. Dieguez, S. M. M. Dubois, K. K. B. Duff,      |
 |  J. M. Escartin, A. Greco, H. Helal, Q. O. Hill, L. P. Lee,   |
 |  J.-H. Li, E. B. Linscott, G. Moynihan, D. D. O`Regan,        |
 |  O. K. Okan, M. J. S. Phipps, C. J. Pickard,                  |
 |  J. C. A. Prentice, M. I. J. Probert, L. E. Ratcliff,         |
 |  M. Robinson, A. Ruiz Serrano, J. S. Spencer, E. W. Tait,     |
 |  G. Teobaldi, D. Turban, V. Vitale, K. A. Wilkinson,          |
 |  C. Weber, J. C. Womack, N. Yeung and T. J. Zuehlsdorff       |
 |                                                               |
 |                                   Copyright (c) 2004-2020     |
 |                                                               |
 |  Please cite:                                                 |
 |  "Introducing ONETEP: Linear-scaling density functional       |
 |   simulations on parallel computers".                         |
 |   C.-K. Skylaris, P. D. Haynes, A. A. Mostofi, M. C. Payne.   |
 |   J. Chem. Phys. 122 084119 (2005).                           |
 |                                                               |
 |          in all publications arising from your use of ONETEP. |
 |                                                               |
 +---------------------------------------------------------------+
 |                                                               |
 |   ONETEP is based on developments described in the following  |
 |   publications:                                               |
 |                                                               |
 |  "Nonorthogonal generalized Wannier function pseudopotential  |
 |   plane-wave method".                                         |
 |   C.-K. Skylaris, A. A. Mostofi, P. D. Haynes, O. Dieguez,    |
 |   M. C. Payne.                                                |
 |   Phys. Rev. B 66 035119 (2002).                              |
 |                                                               |
 |  "Preconditioned iterative minimization for linear-scaling    |
 |   electronic structure calculations".                         |
 |   A. A. Mostofi, P. D. Haynes, C.-K. Skylaris, M. C. Payne.   |
 |   J. Chem. Phys. 119(17), pp.8842-8848 (2003).                |
 |                                                               |
 |  "Total-energy calculations on a real space grid with         |
 |   localized functions and a plane-wave basis".                |
 |   A. A. Mostofi, C.-K. Skylaris, P. D. Haynes, M. C. Payne.   |
 |   Comput. Phys. Commun. 147, pp.788-802 (2002).               |
 |                                                               |
 |  "Accurate kinetic energy evaluation in electronic structure  |
 |   calculations with localized functions on real space grids"  |
 |   C.-K. Skylaris, A. A. Mostofi, P. D. Haynes, C. J. Pickard, |
 |   M. C. Payne.                                                |
 |   Comput. Phys. Commun. 140, pp.315-322 (2001).               |
 |                                                               |
 |  "Accurate ionic forces and geometry optimization in linear-  |
 |   scaling density-functional theory with local orbitals"      |
 |   N. D. M. Hine, M. Robinson, P. D. Haynes, C.-K. Skylaris,   |
 |   M. C. Payne, and A. A. Mostofi.                             |
 |   Phys. Rev. B 83 195102 (2011).                              |
 |                                                               |
 +---------------------------------------------------------------+

Job started: 04-06-2020 11:44 (+0100)
 
Reading parameters from file "592nano.dat" ...... done

If your calculation crashes here, before "Checking processes and threads..."
is displayed, then your stack size is insufficient.
If so, use "ulimit -s unlimited" at runtime.
You can disable this check with "check_stack_size F".

Checking processes and threads...
   Determining the default number of threads...
      No default threads set at compilation time: defaulting to 1.
      OpenMP library call suggests 4 threads.
      Hybrid MPI-OpenMP compilation detected.
      Number of MPI processes > 1.
      OMP_NUM_THREADS environment variable present and
      its value matches the one obtained from the OpenMP library call.
      Using this value as default.
      Default threads: 4
      Default applies to threads_max and threads_num_fftboxes.
      Settings in the input file override this default.
   ... done

   Running with 140 MPI processes.
   There are 10 MPI processes running on the same node as the root process.
   Each MPI process is using: 
               1 threads for simulation cell FFTs.
               1 threads for parallel FFT box operations.
               4 threads for loops over batched FFT box operations.
               4 threads in other parallel regions.
... done

Basic input checks...
Resetting ngwf_cg_rotate to TRUE for EDFT calculations
... done

Reading geometry and species blocks from file "592nano.dat" ...    
  Number of PPD points along a3 set to 1.  This is 
  the default value, it may have been provided also in the input file.
... done


--------------------------------------------------------------------------------
---------------------------------- INPUT FILE ----------------------------------
--------------------------------------------------------------------------------

task : geometryoptimization                                                     
do_properties : true                                                            
dx_format T                                                                     
edft T                                                                          
output_detail VERBOSE                                                           
write_xyz T                                                                     
dispersion 4                                                                    
xc_functional PBE                                                               
cutoff_energy 830 eV                                                            
paw T                                                                           
geom_continuation T                                                             
geom_disp_tol 0.015 bohr                                                        
geom_energy_tol 1.5E-6 hartree                                                  
geom_force_tol 0.003 "ha/bohr"                                                  
EDFT_MAXIT 30                                                                   
pdos_max_l = 2                                                                  
dos_smear  0.1 eV                                                               
popn_calculate T                                                                
PDOS_PSEUDOATOMIC T                                                             
PDOS_REDUCE_SWS F                                                               
PDOS_CONSTRUCT_BASIS F                                                          
PDOS_LOWDIN T                                                                   
PDOS_ORTH_ATOM_BLOCKS F                                                         
PDOS_LCAO_OPTIMIZE F                                                            
pdos_optados_output T                                                           
homo_plot 0                                                                     
lumo_plot 0                                                                     
homo_dens_plot -1                                                               
lumo_dens_plot -1                                                               
%BLOCK SPECIES                                                                  
C C 6 4 9.0                                                                     
H H 1 1 9.0                                                                     
Li Li 3 5 9.0                                                                   
%ENDBLOCK SPECIES                                                               
%BLOCK SPECIES_POT                                                              
C "~/pp/paw/c_pbe_abinit.paw"                                                   
H "~/pp/paw/h_pbe_abinit.paw"                                                   
Li "~/pp/paw/li_pbe_abinit.paw"                                                 
%ENDBLOCK SPECIES_POT                                                           
%BLOCK SPECIES_ATOMIC_SET                                                       
C "SOLVE conf=2s2 2p2"                                                          
H "SOLVE conf=1s1"                                                              
Li "SOLVE conf=1s2 2s1 2p0"                                                     
%ENDBLOCK SPECIES_ATOMIC_SET                                                    
%BLOCK LATTICE_CART                                                             
94.486315650000      0.000000000000       0.000000000000                        
0.000000000000       94.486315650000      0.000000000000                        
0.000000000000       0.000000000000       94.486315650000                       
%ENDBLOCK LATTICE_CART                                                          
%BLOCK POSITIONS_ABS                                                            
C 45.481334 50.692179 30.716379                                                 
C 45.422530 50.599741 36.819409                                                 
C 46.828113 53.021144 30.725754                                                 
C 48.110129 50.601144 36.821853                                                 
C 49.519804 48.366353 30.701229                                                 
C 49.455089 48.275405 36.815548                                                 
C 50.862761 50.692506 30.711171                                                 
C 52.143071 48.278352 36.819612                                                 
C 45.485176 55.353369 30.728956                                                 
C 45.427056 55.256508 36.836786                                                 
C 46.831404 57.681930 30.721173                                                 
C 48.112120 55.256782 36.839864                                                 
C 49.516890 53.021422 30.721504                                                 
C 49.453503 52.929160 36.833269                                                 
C 50.863422 55.354586 30.721207                                                 
C 52.140982 52.930203 36.836551                                                 
C 45.394409 50.515892 42.954349                                                 
C 45.377648 50.401023 49.086237                                                 
C 46.737779 52.841049 42.958489                                                 
C 48.066998 50.400203 49.088551                                                 
C 49.425116 48.186336 42.948649                                                 
C 49.408920 48.067750 49.088405                                                 
C 50.769607 50.512035 42.950529                                                 
C 52.099547 48.068981 49.094544                                                 
C 45.395395 55.168903 42.966902                                                 
C 45.378525 55.064645 49.094388                                                 
C 46.741796 57.495327 42.975068                                                 
C 48.068521 55.062263 49.085057                                                 
C 49.426474 52.838458 42.956062                                                 
C 49.411336 52.731054 49.086404                                                 
C 50.772027 55.164559 42.965696                                                 
C 52.104213 52.729541 49.093061                                                 
C 57.602427 48.361867 30.675647                                                 
C 57.518148 48.281194 36.826322                                                 
C 58.946172 50.683809 30.692179                                                 
C 60.234675 48.286932 36.830132                                                 
C 57.496557 48.180524 42.959061                                                 
C 57.477876 48.061350 49.109835                                                 
C 58.838874 50.504951 42.958620                                                 
C 60.198023 48.063212 49.104505                                                 
C 53.557251 50.692304 30.706381                                                 
C 53.483114 50.605125 36.830728                                                 
C 54.900681 53.020109 30.723185                                                 
C 56.178181 50.607565 36.832511                                                 
C 53.458848 50.509410 42.954470                                                 
C 53.445929 50.399535 49.096011                                                 
C 54.802835 52.835118 42.958720                                                 
C 56.142134 50.396910 49.103529                                                 
C 57.609452 43.714498 30.672273                                                 
C 57.522693 43.622101 36.815022                                                 
C 58.945287 46.024455 30.658698                                                 
C 60.240087 43.642933 36.820939                                                 
C 57.496794 43.533742 42.958250                                                 
C 57.472180 43.400513 49.111301                                                 
C 58.835867 45.848102 42.960612                                                 
C 60.188294 43.419379 49.103885                                                 
C 53.561655 46.037971 30.684929                                                 
C 53.489040 45.949674 36.812725                                                 
C 54.905347 48.365297 30.688321                                                 
C 56.181951 45.954171 36.817285                                                 
C 53.458588 45.857833 42.954381                                                 
C 53.438814 45.737056 49.100102                                                 
C 54.801372 48.180947 42.956018                                                 
C 56.135027 45.739177 49.109821                                                 
C 57.591927 57.680931 30.827476                                                 
C 57.512142 57.596842 36.873665                                                 
C 58.935641 60.070532 30.871881                                                 
C 60.229868 57.580527 36.890225                                                 
C 57.502648 57.477375 42.959721                                                 
C 57.488973 57.394307 49.008234                                                 
C 58.847621 59.837448 42.956771                                                 
C 60.230899 57.361494 48.986660                                                 
C 45.481324 64.676889 30.712085                                                 
C 45.445701 64.571878 36.870735                                                 
C 46.853779 67.021896 30.723863                                                 
C 48.118338 64.572435 36.889992                                                 
C 49.517044 62.349818 30.716777                                                 
C 49.465112 62.245694 36.876188                                                 
C 50.877638 64.703582 30.730164                                                 
C 52.147654 62.244090 36.885179                                                 
C 45.397819 64.480158 42.963941                                                 
C 45.402781 64.397780 49.185951                                                 
C 46.774766 66.819551 42.997541                                                 
C 48.080276 64.398316 49.154847                                                 
C 49.433367 62.144994 42.998705                                                 
C 49.427040 62.067003 49.131649                                                 
C 50.798077 64.495244 43.005790                                                 
C 52.111489 62.069671 49.134256                                                 
C 53.553714 60.021620 30.742680                                                 
C 53.488983 59.919554 36.871612                                                 
C 54.908307 62.390971 30.764511                                                 
C 56.177188 59.914323 36.880933                                                 
C 53.468079 59.812437 42.980158                                                 
C 53.445617 59.736812 49.094758                                                 
C 54.825855 62.167178 42.978938                                                 
C 56.146779 59.731024 49.034518                                                 
C 57.595129 53.006278 30.732807                                                 
C 57.515189 52.936583 36.844938                                                 
C 58.940761 55.347272 30.806706                                                 
C 60.232183 52.934121 36.854475                                                 
C 57.498523 52.830864 42.958654                                                 
C 57.487574 52.724796 49.084096                                                 
C 58.840404 55.161166 42.957211                                                 
C 60.216406 52.710907 49.074658                                                 
C 45.486485 60.013733 30.717983                                                 
C 45.434187 59.913021 36.847132                                                 
C 46.835238 62.349396 30.712053                                                 
C 48.116234 59.912730 36.857622                                                 
C 49.521508 57.683056 30.720516                                                 
C 49.456752 57.584963 36.851169                                                 
C 50.867342 60.021405 30.719054                                                 
C 52.143390 57.585109 36.854789                                                 
C 45.397760 59.823510 42.965435                                                 
C 45.389176 59.727179 49.157949                                                 
C 46.748201 62.152767 42.979531                                                 
C 48.076149 59.726841 49.115211                                                 
C 49.429407 57.490177 42.977026                                                 
C 49.416081 57.395343 49.092236                                                 
C 50.779520 59.820529 42.989664                                                 
C 52.106918 57.395758 49.089887                                                 
C 53.553789 55.353099 30.734246                                                 
C 53.483214 55.260982 36.847477                                                 
C 54.890371 57.691478 30.756354                                                 
C 56.176146 55.261644 36.853038                                                 
C 53.461578 55.159529 42.963257                                                 
C 53.449169 55.061284 49.082879                                                 
C 54.810728 57.490140 42.967795                                                 
C 56.144359 55.048625 49.067917                                                 
H 27.276962 41.355221 30.507857                                                 
H 28.245622 39.563939 37.026159                                                 
H 27.240482 41.164074 43.044429                                                 
H 28.188677 39.333486 49.064174                                                 
H 41.871297 30.275785 30.138505                                                 
C 42.916179 32.060132 30.099809                                                 
H 44.500641 30.173640 37.138446                                                 
H 41.708834 30.103857 43.048584                                                 
C 42.757467 31.888378 43.075503                                                 
H 44.382074 29.963328 48.676739                                                 
H 29.613995 37.280751 30.368092                                                 
C 30.654532 39.064295 30.285725                                                 
H 32.279562 37.219851 37.280213                                                 
H 33.724167 34.876851 29.981590                                                 
C 34.748516 36.670912 29.964614                                                 
H 29.575292 37.116177 43.024358                                                 
C 30.596211 38.913229 43.064810                                                 
H 32.221064 37.011795 49.051021                                                 
H 33.618721 34.785620 43.104661                                                 
C 34.653655 36.579040 43.121238                                                 
H 37.835977 32.573517 29.808026                                                 
C 38.845530 34.379219 29.805284                                                 
H 40.439117 32.507413 37.439592                                                 
H 37.672158 32.442911 43.135198                                                 
C 38.705426 34.238346 43.145798                                                 
H 40.283618 32.303575 49.017582                                                 
H 46.519613 30.294957 30.603810                                                 
H 46.385387 30.108662 42.943154                                                 
H 25.886298 48.302686 37.335142                                                 
C 27.953922 48.303116 37.300336                                                 
H 25.843340 48.028172 49.205680                                                 
C 27.912912 48.040786 49.228638                                                 
H 25.895826 43.602696 37.148057                                                 
H 27.254409 46.083202 30.081406                                                 
C 27.964541 43.595169 37.134787                                                 
H 25.845539 43.379544 49.143813                                                 
H 27.241439 45.821306 43.150387                                                 
C 27.912877 43.364231 49.181455                                                 
H 25.921916 57.666954 36.956003                                                 
H 27.325467 60.085331 30.688312                                                 
C 27.990604 57.673031 36.926447                                                 
H 25.834535 57.433826 48.830609                                                 
H 27.233916 59.849837 43.048553                                                 
C 27.899802 57.424193 48.943119                                                 
H 25.906574 53.016662 37.216708                                                 
H 27.321703 55.434558 30.412299                                                 
C 27.975164 53.002276 37.161069                                                 
H 25.818583 52.704573 49.096582                                                 
H 27.228455 55.188327 43.060991                                                 
C 27.887156 52.708314 49.135220                                                 
C 29.337922 41.361350 30.366977                                                 
C 29.268726 41.359967 37.063483                                                 
C 30.605949 43.740764 30.249388                                                 
C 31.969472 41.282407 37.098199                                                 
C 33.344527 38.967646 30.101982                                                 
C 33.323858 39.002470 37.190492                                                 
C 34.698192 41.368611 30.163263                                                 
C 35.994252 38.934467 37.343935                                                 
C 29.322918 46.077986 30.097293                                                 
C 29.247951 45.973183 37.241535                                                 
C 30.630368 48.419052 29.956824                                                 
C 31.971124 45.952263 37.154554                                                 
C 33.352600 43.707543 30.237888                                                 
C 33.311472 43.627482 37.091899                                                 
C 34.708444 46.056735 30.277758                                                 
C 36.009168 43.618924 37.045692                                                 
C 29.307136 41.145452 43.076821                                                 
C 29.204279 41.131752 49.140324                                                 
C 30.595135 43.532802 43.117459                                                 
C 31.914093 41.059730 49.162984                                                 
C 33.306030 38.841343 43.108846                                                 
C 33.257148 38.799596 49.122595                                                 
C 34.646433 41.202465 43.117835                                                 
C 35.928981 38.730271 49.150658                                                 
C 29.310923 45.825397 43.142485                                                 
C 29.205797 45.746812 49.223857                                                 
C 30.587589 48.181581 43.143422                                                 
C 31.921608 45.732150 49.218124                                                 
C 33.310985 43.518763 43.114091                                                 
C 33.259036 43.418530 49.194344                                                 
C 34.645116 45.856916 43.101715                                                 
C 35.952838 43.407427 49.181488                                                 
C 41.478343 39.044589 30.038849                                                 
C 41.412300 38.949054 37.143675                                                 
C 42.812695 41.379321 30.305267                                                 
C 44.104331 38.950388 37.061209                                                 
C 41.363336 38.872809 43.117955                                                 
C 41.322396 38.741461 49.193751                                                 
C 42.710769 41.205419 43.063536                                                 
C 44.008921 38.743647 49.216200                                                 
C 37.424479 41.365853 30.160533                                                 
C 37.356851 41.295724 37.138783                                                 
C 38.754306 43.698829 30.359929                                                 
C 40.050613 41.283785 37.048841                                                 
C 37.335244 41.197354 43.116359                                                 
C 37.290175 41.084025 49.169848                                                 
C 38.679699 43.532349 43.075043                                                 
C 39.982562 41.072019 49.168966                                                 
C 41.494587 34.358954 29.860848                                                 
C 41.459261 34.299416 37.328343                                                 
C 42.866950 36.711909 29.888363                                                 
C 44.118760 34.262489 37.214290                                                 
C 41.338901 34.201466 43.134873                                                 
C 41.322419 34.090040 49.137836                                                 
C 42.714578 36.545630 43.123218                                                 
C 43.966197 34.046017 49.109279                                                 
C 37.426871 36.641234 29.842462                                                 
C 37.377424 36.641419 37.311652                                                 
C 38.788546 39.023786 29.984534                                                 
C 40.046710 36.584503 37.288625                                                 
C 37.321519 36.522453 43.151044                                                 
C 37.292238 36.448721 49.133478                                                 
C 38.678134 38.874029 43.137705                                                 
C 39.943930 36.383952 49.180510                                                 
C 41.442672 48.365348 30.632655                                                 
C 41.392337 48.273303 36.838356                                                 
C 42.787982 50.691023 30.696475                                                 
C 44.079196 48.271885 36.816123                                                 
C 41.365255 48.189130 42.994097                                                 
C 41.341036 48.070970 49.114349                                                 
C 42.707291 50.518176 42.975677                                                 
C 44.032893 48.069073 49.101202                                                 
C 29.390722 55.424365 30.438473                                                 
C 29.275762 55.286864 37.007940                                                 
C 30.683642 57.717861 30.578296                                                 
C 31.991918 55.293637 36.944372                                                 
C 33.379910 53.072085 30.422995                                                 
C 33.329694 52.961162 36.991634                                                 
C 34.725453 55.383213 30.577077                                                 
C 36.021138 52.943927 36.908343                                                 
C 29.297707 55.186244 43.050639                                                 
C 29.172574 55.029703 49.051227                                                 
C 30.582041 57.480608 42.955883                                                 
C 31.916527 55.059075 49.116947                                                 
C 33.299557 52.845251 43.071363                                                 
C 33.263180 52.716161 49.158090                                                 
C 34.637656 55.172938 42.989645                                                 
C 35.958978 52.729753 49.160677                                                 
C 37.407000 50.704429 30.550630                                                 
C 37.359943 50.609589 36.902824                                                 
C 38.756743 53.032139 30.649656                                                 
C 40.049758 50.603213 36.847238                                                 
C 37.334929 50.516906 43.044643                                                 
C 37.305014 50.400888 49.142045                                                 
C 38.674588 52.846374 43.008554                                                 
C 39.998575 50.401626 49.117078                                                 
C 41.450956 43.702310 30.436827                                                 
C 41.394699 43.610688 36.915446                                                 
C 42.792262 46.032610 30.588708                                                 
C 44.086374 43.611128 36.869096                                                 
C 41.365662 43.532801 43.042126                                                 
C 41.337292 43.405510 49.145620                                                 
C 42.707879 45.861554 42.995410                                                 
C 44.026025 43.403558 49.131316                                                 
C 29.367229 50.760889 30.084973                                                 
C 29.246786 50.653863 37.256110                                                 
C 30.667384 53.087067 30.304750                                                 
C 31.980750 50.639189 37.141625                                                 
C 33.370464 48.398076 30.202380                                                 
C 33.323884 48.295972 37.111342                                                 
C 34.710953 50.722303 30.389727                                                 
C 36.018380 48.283399 36.966633                                                 
C 29.303069 50.506545 43.143702                                                 
C 29.186312 50.387323 49.193852                                                 
C 30.579534 52.835483 43.099495                                                 
C 31.913982 50.391029 49.184004                                                 
C 33.305714 48.181549 43.113861                                                 
C 33.260673 48.069474 49.196893                                                 
C 34.640977 50.516178 43.085485                                                 
C 35.959990 48.070751 49.168790                                                 
C 37.399530 46.039181 30.419305                                                 
C 37.359395 45.949583 36.950845                                                 
C 38.747613 48.369045 30.545905                                                 
C 40.046441 45.941598 36.884345                                                 
C 37.338128 45.857253 43.067801                                                 
C 37.304053 45.742482 49.165585                                                 
C 38.677621 48.188555 43.034127                                                 
C 39.994855 45.738250 49.142128                                                 
C 45.491353 32.071888 30.360044                                                 
C 45.541465 31.958297 37.082923                                                 
C 46.916127 34.375004 30.375816                                                 
C 48.118981 31.974763 36.905991                                                 
H 49.164492 30.190838 36.817794                                                 
H 50.563407 32.622266 30.772770                                                 
C 45.545283 36.717690 30.193365                                                 
C 45.481034 36.612895 37.083545                                                 
C 46.874825 39.050160 30.392268                                                 
C 48.157915 36.622876 36.918366                                                 
C 49.541606 34.412717 30.608627                                                 
C 49.530323 34.285221 36.862693                                                 
C 50.923321 36.695044 30.625968                                                 
C 52.169416 34.328216 36.791394                                                 
C 45.337225 31.890333 43.018486                                                 
C 45.408257 31.741962 48.911071                                                 
C 46.764850 34.200443 43.031709                                                 
C 48.027388 31.740081 48.925183                                                 
H 49.049967 29.956441 48.702929                                                 
H 50.423167 32.438808 42.928499                                                 
C 45.390064 36.546776 43.074321                                                 
C 45.368701 36.405289 49.200082                                                 
C 46.743736 38.872607 43.035263                                                 
C 48.064688 36.403782 49.201226                                                 
C 49.392542 34.233423 42.980675                                                 
C 49.466215 34.044960 49.111197                                                 
C 50.792621 36.519906 42.979362                                                 
C 52.115293 34.090621 49.158514                                                 
H 53.209376 32.537304 36.765471                                                 
H 53.156783 32.302095 49.085522                                                 
C 57.615802 39.092919 30.724063                                                 
C 57.544080 38.943193 36.808488                                                 
C 58.954956 41.350709 30.687615                                                 
C 60.256337 39.021140 36.822936                                                 
C 57.499908 38.914565 42.952383                                                 
C 57.487475 38.722440 49.119963                                                 
C 58.841813 41.171387 42.956327                                                 
C 60.197774 38.798330 49.099922                                                 
C 45.482344 46.034763 30.635385                                                 
C 45.427152 45.942787 36.818650                                                 
C 46.827731 48.364680 30.695360                                                 
C 48.113364 45.944462 36.810151                                                 
C 49.531338 43.709740 30.640676                                                 
C 49.462792 43.616691 36.811384                                                 
C 50.870785 46.035943 30.682601                                                 
C 52.152433 43.622692 36.804185                                                 
C 45.395503 45.861185 42.972021                                                 
C 45.375057 45.737211 49.102576                                                 
C 46.737776 48.187963 42.951506                                                 
C 48.064328 45.737310 49.094448                                                 
C 49.426559 43.532396 42.965050                                                 
C 49.408160 43.403343 49.111991                                                 
C 50.768755 45.857315 42.953252                                                 
C 52.096351 43.405462 49.111873                                                 
C 53.576722 41.383908 30.674753                                                 
C 53.505204 41.292246 36.801238                                                 
C 54.914320 43.705389 30.677175                                                 
C 56.193708 41.303371 36.806412                                                 
C 53.461927 41.201797 42.957740                                                 
C 53.446229 41.068993 49.129951                                                 
C 54.805058 43.524572 42.955908                                                 
C 56.140030 41.081247 49.121539                                                 
H 57.248393 34.889962 36.802990                                                 
H 58.652351 37.303298 30.778848                                                 
H 57.193011 34.665176 49.116793                                                 
H 58.537053 37.124216 42.945743                                                 
C 45.505060 41.382310 30.423290                                                 
C 45.442803 41.289365 36.911229                                                 
C 46.838556 43.706437 30.582786                                                 
C 48.126268 41.287705 36.849880                                                 
C 49.551377 39.049259 30.560641                                                 
C 49.487953 38.954868 36.846774                                                 
C 50.888873 41.378902 30.633225                                                 
C 52.169985 38.962359 36.803111                                                 
C 45.395062 41.205646 43.026615                                                 
C 45.368917 41.071420 49.168024                                                 
C 46.740525 43.533085 42.983589                                                 
C 48.063000 41.071091 49.162550                                                 
C 49.428646 38.873301 42.994717                                                 
C 49.421201 38.743535 49.203910                                                 
C 50.774874 41.197532 42.969870                                                 
C 52.109267 38.739426 49.173953                                                 
C 53.579766 36.751523 30.719578                                                 
C 53.536469 36.612808 36.792803                                                 
C 54.938061 39.024536 30.701548                                                 
C 56.208662 36.679936 36.797264                                                 
C 53.449152 36.571353 42.953988                                                 
C 53.480098 36.381487 49.171753                                                 
C 54.819089 38.845875 42.955059                                                 
C 56.148017 36.452325 49.140602                                                 
H 61.278137 37.222529 36.834249                                                 
H 62.682680 39.622105 30.734817                                                 
H 61.221121 37.001329 49.077056                                                 
H 62.571730 39.445253 42.943190                                                 
H 28.281960 61.702905 36.804350                                                 
H 28.191742 61.490427 48.867107                                                 
C 29.392889 60.102462 30.660269                                                 
C 29.291708 59.898988 36.838349                                                 
C 30.685873 62.336220 30.702731                                                 
C 32.001255 59.965649 36.809212                                                 
C 33.393955 57.724348 30.617803                                                 
C 33.338300 57.603091 36.849219                                                 
C 34.737384 60.039831 30.671908                                                 
C 36.027865 57.602476 36.823978                                                 
H 29.667654 64.136371 30.759911                                                 
H 32.322388 64.013990 36.773828                                                 
C 33.396381 62.401919 30.690191                                                 
C 33.353000 62.220374 36.769987                                                 
C 34.750140 64.664277 30.696900                                                 
C 36.027010 62.279667 36.763740                                                 
C 29.298434 59.868597 42.918551                                                 
C 29.220077 59.699851 48.982614                                                 
C 30.566725 62.109319 42.728911                                                 
C 31.920136 59.782919 49.205783                                                 
C 33.295316 57.503471 42.903281                                                 
C 33.263023 57.395656 49.206314                                                 
C 34.625720 59.823321 42.728316                                                 
C 35.973594 57.401981 49.325687                                                 
H 29.526903 63.897004 42.719369                                                 
H 32.249668 63.854968 49.450026                                                 
C 33.275948 62.190069 42.562562                                                 
C 33.280757 62.059551 49.490030                                                 
C 34.640092 64.464652 42.389807                                                 
C 35.958886 62.098635 49.752429                                                 
C 41.454866 57.687362 30.718996                                                 
C 41.402382 57.587120 36.826514                                                 
C 42.802458 60.015756 30.716369                                                 
C 44.086558 57.585859 36.837683                                                 
C 41.364511 57.504356 42.921762                                                 
C 41.346834 57.399775 49.235967                                                 
C 42.710808 59.829852 42.911074                                                 
C 44.037946 57.398299 49.154253                                                 
C 37.424184 60.035665 30.692484                                                 
C 37.376726 59.922315 36.786879                                                 
C 38.771090 62.356932 30.697425                                                 
C 40.060866 59.922991 36.804282                                                 
C 37.333300 59.833721 42.734296                                                 
C 37.320265 59.727382 49.504145                                                 
C 38.688331 62.167677 42.662701                                                 
C 40.009749 59.739778 49.391873                                                 
C 41.445943 53.025878 30.704252                                                 
C 41.395756 52.930597 36.834454                                                 
C 42.795286 55.354185 30.723965                                                 
C 44.081412 52.928427 36.828050                                                 
C 41.364785 52.846354 42.984674                                                 
C 41.344907 52.732909 49.117178                                                 
C 42.707549 55.173640 42.965676                                                 
C 44.033916 52.732539 49.090302                                                 
C 37.420504 55.371385 30.652737                                                 
C 37.369376 55.266697 36.850104                                                 
C 38.765873 57.692546 30.696416                                                 
C 40.055855 55.262612 36.833939                                                 
C 37.332603 55.176132 42.966716                                                 
C 37.308209 55.065002 49.215728                                                 
C 38.677310 57.501413 42.888801                                                 
C 40.002226 55.067739 49.194518                                                 
C 41.434648 67.027855 30.698962                                                 
C 41.452042 66.884934 36.852571                                                 
C 42.855419 69.341611 30.715051                                                 
C 44.076479 66.918470 36.879991                                                 
C 41.352688 66.835863 42.837919                                                 
C 41.393316 66.704946 49.290405                                                 
C 42.776413 69.141369 42.959994                                                 
C 44.032209 66.736858 49.182422                                                 
H 37.771860 68.790935 30.699964                                                 
H 40.419675 68.677195 36.873167                                                 
H 37.698669 68.610355 42.610242                                                 
H 40.360212 68.498381 49.231298                                                 
C 41.455724 62.353656 30.707452                                                 
C 41.411196 62.246007 36.811894                                                 
C 42.806014 64.678837 30.702848                                                 
C 44.091375 62.246875 36.842774                                                 
C 41.373606 62.165537 42.823798                                                 
C 41.372127 62.072950 49.375171                                                 
C 42.722509 64.489723 42.881323                                                 
C 44.047516 62.067553 49.227981                                                 
H 33.717885 66.459133 30.714536                                                 
H 33.605848 66.247514 42.205017                                                 
C 37.416463 64.712068 30.692683                                                 
C 37.403067 64.551527 36.778031                                                 
C 38.804106 66.996219 30.692235                                                 
C 40.054505 64.599588 36.806268                                                 
C 37.331875 64.536619 42.494732                                                 
C 37.354181 64.372912 49.717732                                                 
C 38.722001 66.812957 42.646692                                                 
C 40.021427 64.428247 49.480147                                                 
C 61.667974 41.423028 30.689912                                                 
C 61.536006 41.256962 36.826882                                                 
C 62.959937 43.655171 30.658745                                                 
H 63.602026 41.283224 36.840644                                                 
C 61.664745 46.039618 30.648343                                                 
C 61.518196 45.934674 36.826967                                                 
C 62.953755 48.333534 30.648854                                                 
H 63.586035 45.935213 36.834877                                                 
H 65.028834 43.671628 30.671239                                                 
C 61.557293 41.246817 42.953263                                                 
C 61.483062 41.036188 49.088067                                                 
C 62.848657 43.477503 42.954739                                                 
H 63.550451 41.060614 49.049223                                                 
C 61.554599 45.864007 42.959914                                                 
C 61.474724 45.714099 49.089470                                                 
C 62.839877 48.160504 42.956552                                                 
H 63.542906 45.710236 49.045113                                                 
H 64.918441 43.492273 42.946234                                                 
C 61.680878 55.315869 30.824617                                                 
C 61.511853 55.288855 36.883472                                                 
C 62.965004 57.713514 30.897324                                                 
H 63.580305 55.289694 36.910413                                                 
H 65.036451 53.001593 30.758982                                                 
C 61.558050 55.140342 42.951112                                                 
C 61.510495 55.050866 49.029851                                                 
C 62.852876 57.524627 42.943626                                                 
H 63.577295 55.052365 48.968228                                                 
H 64.913349 52.839414 42.942771                                                 
C 61.672401 50.677336 30.684768                                                 
C 61.515953 50.610956 36.847047                                                 
C 62.967008 53.001856 30.731333                                                 
H 65.024139 48.329002 30.656531                                                 
C 61.554712 50.502357 42.956161                                                 
C 61.489884 50.384577 49.081046                                                 
C 62.841681 52.840598 42.951104                                                 
H 64.911453 48.157938 42.950001                                                 
H 41.807650 71.125343 30.732567                                                 
H 44.448306 71.010348 36.928596                                                 
H 41.739671 70.931660 42.976429                                                 
H 44.398580 70.827102 49.078646                                                 
C 45.433663 69.337985 30.736114                                                 
C 45.499216 69.230371 36.917941                                                 
H 46.485771 71.117594 30.779409                                                 
C 48.076483 69.231141 36.934377                                                 
C 49.481801 66.988801 30.744495                                                 
C 49.491991 66.916422 36.921146                                                 
H 50.512403 68.782351 30.792009                                                 
C 52.123383 66.878856 36.932641                                                 
H 49.125583 71.014232 36.955571                                                 
C 45.356456 69.130674 43.012853                                                 
C 45.447888 69.046069 49.126915                                                 
H 46.410648 70.908996 43.052342                                                 
C 48.031749 69.050749 49.161415                                                 
C 49.402971 66.781162 43.011412                                                 
C 49.448463 66.743219 49.172918                                                 
H 50.436440 68.572698 43.013754                                                 
C 52.088307 66.712207 49.195395                                                 
H 49.073806 70.837303 49.168640                                                 
H 57.208678 66.330835 36.947103                                                 
H 57.179344 66.182422 49.117352                                                 
H 53.158278 68.672282 36.954139                                                 
H 53.119988 68.507819 49.202319                                                 
C 57.582451 62.336990 30.826577                                                 
C 57.519427 62.276997 36.908053                                                 
H 58.617419 64.125496 30.904796                                                 
C 60.232075 62.205010 36.926092                                                 
C 57.505223 62.095406 42.961528                                                 
C 57.495303 62.120904 49.038427                                                 
H 58.540996 63.885466 42.946097                                                 
C 60.216245 62.030347 48.995829                                                 
C 53.534011 64.660299 30.758842                                                 
C 53.504253 64.594757 36.914263                                                 
C 56.173047 64.538095 36.923440                                                 
C 53.454674 64.441088 42.988843                                                 
C 53.471732 64.434850 49.164188                                                 
C 56.141166 64.390666 49.133709                                                 
C 61.657389 59.977674 30.934837                                                 
C 61.518849 59.970634 36.922896                                                 
H 62.685093 61.768016 31.019939                                                 
H 63.585797 59.950145 36.955001                                                 
H 65.031989 57.710463 30.949705                                                 
H 61.251167 64.005734 36.958412                                                 
C 61.561172 59.757060 42.941739                                                 
C 61.517583 59.762676 48.956843                                                 
H 62.578462 61.556151 42.919142                                                 
H 63.582862 59.756344 48.896748                                                 
H 64.922982 57.506907 42.923889                                                 
H 61.249704 63.821272 48.968826                                                 
H 63.556675 50.378974 49.029792                                                 
H 36.250446 34.663311 49.054278                                                 
H 36.326662 66.165358 49.845941                                                 
H 27.235271 50.504421 43.157434                                                 
H 54.489309 66.232806 42.982581                                                 
H 63.583530 50.610958 36.860403                                                 
H 54.484468 34.779921 42.935577                                                 
H 36.347923 34.859710 37.488153                                                 
H 36.371320 66.343381 36.798085                                                 
H 54.562320 66.454136 30.813939                                                 
H 27.298997 50.779586 30.011142                                                 
H 54.614168 34.962458 30.798868                                                 
Li 31.779141 41.373914 26.920871                                                
Li 30.356488 48.342098 33.784842                                                
Li 58.869543 59.706858 52.347899                                                
Li 36.062852 38.598887 33.492070                                                
Li 60.326134 57.736028 27.515250                                                
Li 42.668197 36.282130 33.766693                                                
Li 30.367342 57.420905 52.411987                                                
Li 35.912420 62.561438 45.965455                                                
Li 46.708323 33.810370 52.398093                                                
Li 28.995360 48.492240 46.242600                                                
Li 53.991360 37.494000 27.245640                                                
%ENDBLOCK POSITIONS_ABS                                                         

--------------------------------------------------------------------------------
-------------------------------- END INPUT FILE --------------------------------
--------------------------------------------------------------------------------


 
<<<<<<<<<<<<<<<<<<<<<<<<<<<<<<<<< Full system >>>>>>>>>>>>>>>>>>>>>>>>>>>>>>>>>>
<<<<<<<<<<<<<<<<<<<<<<<<<<< PAW Dataset information >>>>>>>>>>>>>>>>>>>>>>>>>>>
File: ~/pp/paw/c_pbe_abinit.paw; rc = 1.25 bohr; shape type =  3; rshape = 1.25 bohr;
  Atomic number:  6;  ionic charge:  4.000000
    Partial Wave 1: l = 0
    Partial Wave 2: l = 0
    Partial Wave 3: l = 1
    Partial Wave 4: l = 1
  Core charge supplied for Nonlinear Core Corrections
File: ~/pp/paw/h_pbe_abinit.paw; rc = 0.90 bohr; shape type =  3; rshape = 0.90 bohr;
  Atomic number:  1;  ionic charge:  1.000000
    Partial Wave 1: l = 0
    Partial Wave 2: l = 0
File: ~/pp/paw/li_pbe_abinit.paw; rc = 1.42 bohr; shape type =  3; rshape = 1.42 bohr;
  Atomic number:  3;  ionic charge:  3.000000
    Partial Wave 1: l = 0
    Partial Wave 2: l = 0
    Partial Wave 3: l = 0
    Partial Wave 4: l = 1
    Partial Wave 5: l = 1
<<<<<<<<<<<<<<<<<<<<<<<<<<<<<<<<<<<<<<< >>>>>>>>>>>>>>>>>>>>>>>>>>>>>>>>>>>>>>>

-------------------------- Atom counting information ---------------------------
Symbol    Natoms    Nngwfs    Nprojs
  C        484      1936      3872
  H        108       108       216
  Li        11        55        99
.......   ......    ......    ......
Totals:    603      2099      4187
--------------------------------------------------------------------------------

=============================== PSINC grid sizes ===============================
                      Simulation cell:  189 x 189 x 189
                              FFT-box:  117 x 117 x 117
                                  PPD:    7 x   7 x   1
Grid space d1=  0.499927596032a0 (KE cutoff=  30.39413Eh = 827.06648eV)
Grid space d2=  0.499927596032a0 (KE cutoff=  30.39413Eh = 827.06648eV)
Grid space d3=  0.499927596032a0 (KE cutoff=  30.39413Eh = 827.06648eV)
================================================================================
  
WARNING in cell_grid_distribute:
Average of less than one 23-slab per node, so workload cannot be
equally balanced between nodes.

********************* Fourier parallelisation information **********************
       Coarse grid (whole simulation cell) dimensions:    189   189   189
          Real-space ('12') slabs/node (min max mean):      1     2     1
         Recip-space ('23') slabs/node (min max mean):      0     1     0
********************************************************************************

********************* Fourier parallelisation information **********************
       Double grid (whole simulation cell) dimensions:    378   378   378
          Real-space ('12') slabs/node (min max mean):      2     3     2
         Recip-space ('23') slabs/node (min max mean):      1     2     1
********************************************************************************

Atom SCF Calculation for C  : Z (AE atom) =   6 : Z (PS atom) =   4
Config String: 2s2 2p2
Orbitals (num,occ):  2     2.00 2.00
Orbitals   (num,l):  2        0    1
Real-space Grid (nr,dr,rmax): 1377    0.0065406977    9.0000000000
Spherical Bessel Basis (nsws,lmax,cutoff):   37    2  183.0099912382
Confining potential (l,width,scale):  0    3.0000000000  100.0000000000
Confining potential (l,width,scale):  1    3.0000000000  100.0000000000
  1         -5.4350126632   -1.2715272878    4.5135247139   -1.5681949477
  2         -5.3876836850   -1.3562195125    4.4235426751   -1.5380057521
  3         -5.3928844498   -1.3758175853    4.4021699684   -1.5318377811
  4         -5.3988962903   -1.3800385428    4.3975423583   -1.5307324410
  5         -5.4018428823   -1.3823489590    4.3950111904   -1.5301555648
  6         -5.4033571720   -1.3835805046    4.3936635548   -1.5298576834
  7         -5.4041480647   -1.3842324820    4.3929512000   -1.5297032953
  8         -5.4045641108   -1.3845769138    4.3925755232   -1.5296229456
  9         -5.4047838258   -1.3847587737    4.3923775340   -1.5295810042
 10         -5.4049001347   -1.3848548089    4.3922731819   -1.5295590658
 11         -5.4049618018   -1.3849055476    4.3922181562   -1.5295475724
 12         -5.4049945351   -1.3849323732    4.3921891206   -1.5295415432
 13         -5.4050119258   -1.3849465673    4.3921737867   -1.5295383767
 14         -5.4050211723   -1.3849540841    4.3921656816   -1.5295367119
 15         -5.4050260920   -1.3849580684    4.3921613935   -1.5295358358
 16         -5.4050287113   -1.3849601822    4.3921591228   -1.5295353742
 17         -5.4050301068   -1.3849613045    4.3921579192   -1.5295351307
 18         -5.4050308507   -1.3849619010    4.3921572806   -1.5295350022
 19         -5.4050312476   -1.3849622183    4.3921569415   -1.5295349343
 20         -5.4050314594   -1.3849623873    4.3921567612   -1.5295348984
 21         -5.4050315725   -1.3849624773    4.3921566653   -1.5295348794
 22         -5.4050316330   -1.3849625253    4.3921566143   -1.5295348693
Atom SCF converged after  22 iterations to a total energy of     -5.40503163

Atom SCF Calculation for H  : Z (AE atom) =   1 : Z (PS atom) =   1
Config String: 1s1
Orbitals (num,occ):  1     1.00
Orbitals   (num,l):  1        0
Real-space Grid (nr,dr,rmax): 1377    0.0065406977    9.0000000000
Spherical Bessel Basis (nsws,lmax,cutoff):   37    1  183.0099912382
Confining potential (l,width,scale):  0    3.0000000000  100.0000000000
  1         -0.3605254152   -0.2399954029    0.2820952946   -0.2424203210
  2         -0.4156854077   -0.2398249290    0.2871789324   -0.2464796203
  3         -0.4412552402   -0.2379720642    0.2899127187   -0.2499011370
  4         -0.4517265951   -0.2371980236    0.2908966173   -0.2514141636
  5         -0.4557775773   -0.2369735141    0.2911607883   -0.2519713623
  6         -0.4573363459   -0.2369240355    0.2912108681   -0.2521663171
  7         -0.4579443228   -0.2369187864    0.2912112833   -0.2522344454
  8         -0.4581858602   -0.2369215483    0.2912049187   -0.2522587615
  9         -0.4582834939   -0.2369242589    0.2912002081   -0.2522677042
 10         -0.4583235236   -0.2369258837    0.2911975892   -0.2522710965
 11         -0.4583401154   -0.2369267223    0.2911962825   -0.2522724192
 12         -0.4583470483   -0.2369271266    0.2911956643   -0.2522729467
 13         -0.4583499624   -0.2369273145    0.2911953803   -0.2522731607
 14         -0.4583511926   -0.2369274000    0.2911952521   -0.2522732486
 15         -0.4583517136   -0.2369274385    0.2911951948   -0.2522732850
 16         -0.4583519349   -0.2369274556    0.2911951693   -0.2522733002
 17         -0.4583520290   -0.2369274632    0.2911951581   -0.2522733066
Atom SCF converged after  17 iterations to a total energy of     -0.45835203

Atom SCF Calculation for Li : Z (AE atom) =   3 : Z (PS atom) =   3
Config String: 1s2 2s1 2p0
Orbitals (num,occ):  3     2.00 1.00 0.00
Orbitals   (num,l):  3        0    0    1
Real-space Grid (nr,dr,rmax): 1377    0.0065406977    9.0000000000
Spherical Bessel Basis (nsws,lmax,cutoff):   37    2  183.0099912382
Confining potential (l,width,scale):  0    3.0000000000  100.0000000000
Confining potential (l,width,scale):  1    3.0000000000  100.0000000000
  1         -6.0640888065   -4.6655401716    2.5388576516   -0.9989538799
  2         -6.9627542978   -4.0954079129    2.9808988108   -1.1965571426
  3         -7.2692687601   -3.8889996707    3.2029735703   -1.3193883705
  4         -7.3784440298   -3.8322099748    3.2868571989   -1.3711018151
  5         -7.4170278248   -3.8191968371    3.3144974220   -1.3911175539
  6         -7.4303549880   -3.8172386945    3.3228486489   -1.3986896266
  7         -7.4348052089   -3.8175483495    3.3251259310   -1.4015352495
  8         -7.4362242328   -3.8180607346    3.3256233205   -1.4026016384
  9         -7.4366459715   -3.8184145665    3.3256561549   -1.4029998726
 10         -7.4367560626   -3.8186169740    3.3256001574   -1.4031477379
 11         -7.4367765260   -3.8187239825    3.3255481763   -1.4032021548
 12         -7.4367751741   -3.8187782620    3.3255144587   -1.4032219192
 13         -7.4367707398   -3.8188051288    3.3254952336   -1.4032289600
 14         -7.4367680349   -3.8188156035    3.3254870176   -1.4032309087
 15         -7.4367661982   -3.8188217406    3.3254819951   -1.4032318132
 16         -7.4367650112   -3.8188253257    3.3254789583   -1.4032322224
 17         -7.4367642682   -3.8188274151    3.3254771375   -1.4032324006
 18         -7.4367638134   -3.8188286307    3.3254760529   -1.4032324736
 19         -7.4367635392   -3.8188293370    3.3254754103   -1.4032325004
 20         -7.4367633760   -3.8188297469    3.3254750310   -1.4032325080
 21         -7.4367632796   -3.8188299846    3.3254748079   -1.4032325082
Atom SCF converged after  21 iterations to a total energy of     -7.43676328

================================================================================
<<<<<<<<<<<<<<<< Resuming previous ONETEP Geometry Optimisation >>>>>>>>>>>>>>>>
================================================================================

 Geometry Optimisation: output file is "592nano.geom"
 
 Geometry Optimisation: write_hamiltonian parameter over-ridden to T
 Reading continuation file "592nano.continuation" ...done
 Geometry Optimisation: read_tightbox_ngwfs parameter over-ridden to TRUE
 Geometry Optimisation: read_hamiltonian parameter over-ridden to T
 
                           -------------------------------
                                     Cell Contents
                           -------------------------------
 
            xxxxxxxxxxxxxxxxxxxxxxxxxxxxxxxxxxxxxxxxxxxxxxxxxxxxxxxxxxxx
            x  Element    Atom      Absolute co-ordinates of atoms     x
            x            Number        x           y           z       x
            x----------------------------------------------------------x
            x    C         1       45.491416   50.670505   30.712680   x
            x    C         2       45.422681   50.587054   36.832728   x
            x    C         3       46.835925   53.002490   30.736384   x
            x    C         4       48.110615   50.589452   36.831917   x
            x    C         5       49.534832   48.349315   30.679989   x
            x    C         6       49.455277   48.263823   36.823423   x
            x    C         7       50.875789   50.679590   30.716754   x
            x    C         8       52.143804   48.268506   36.819851   x
            x    C         9       45.490443   55.333822   30.736873   x
            x    C        10       45.426857   55.244157   36.835205   x
            x    C        11       46.833643   57.665407   30.733913   x
            x    C        12       48.112106   55.245467   36.844831   x
            x    C        13       49.525606   53.005910   30.741077   x
            x    C        14       49.454172   52.918365   36.841072   x
            x    C        15       50.868651   55.342130   30.749780   x
            x    C        16       52.141874   52.921000   36.843557   x
            x    C        17       45.407406   50.520704   42.976517   x
            x    C        18       45.351214   50.412308   49.083567   x
            x    C        19       46.752706   52.847013   42.970815   x
            x    C        20       48.042190   50.409718   49.078130   x
            x    C        21       49.435609   48.188085   42.964920   x
            x    C        22       49.387016   48.080029   49.094606   x
            x    C        23       50.780345   50.514189   42.951824   x
            x    C        24       52.079405   48.076018   49.097837   x
            x    C        25       45.413111   55.176003   42.969647   x
            x    C        26       45.356443   55.070860   49.092964   x
            x    C        27       46.762278   57.502272   42.971502   x
            x    C        28       48.046428   55.065068   49.074978   x
            x    C        29       49.440669   52.842693   42.959484   x
            x    C        30       49.389396   52.735779   49.067136   x
            x    C        31       50.786543   55.169109   42.958339   x
            x    C        32       52.082710   52.729886   49.066075   x
            x    C        33       57.627465   48.370354   30.664132   x
            x    C        34       57.520943   48.274686   36.820511   x
            x    C        35       58.966364   50.696659   30.693103   x
            x    C        36       60.238456   48.282658   36.823956   x
            x    C        37       57.502510   48.182013   42.951955   x
            x    C        38       57.462661   48.060675   49.102768   x
            x    C        39       58.845464   50.505719   42.951799   x
            x    C        40       60.183913   48.058136   49.102212   x
            x    C        41       53.571774   50.686443   30.711206   x
            x    C        42       53.484265   50.596186   36.832262   x
            x    C        43       54.911693   53.018303   30.744667   x
            x    C        44       56.179706   50.600564   36.832420   x
            x    C        45       53.468038   50.511471   42.943692   x
            x    C        46       53.426641   50.402377   49.078185   x
            x    C        47       54.812816   52.836898   42.946452   x
            x    C        48       56.123917   50.394539   49.082591   x
            x    C        49       57.649825   43.721177   30.680988   x
            x    C        50       57.526503   43.615321   36.811223   x
            x    C        51       58.980322   46.041717   30.639615   x
            x    C        52       60.244279   43.638762   36.808442   x
            x    C        53       57.501151   43.535434   42.962536   x
            x    C        54       57.458904   43.404408   49.132482   x
            x    C        55       58.840085   45.849228   42.959497   x
            x    C        56       60.176282   43.418446   49.124440   x
            x    C        57       53.586781   46.034185   30.664813   x
            x    C        58       53.490853   45.940523   36.813183   x
            x    C        59       54.927722   48.365905   30.674839   x
            x    C        60       56.184478   45.946909   36.812348   x
            x    C        61       53.466178   45.859862   42.954048   x
            x    C        62       53.422454   45.746135   49.113868   x
            x    C        63       54.808695   48.182797   42.947174   x
            x    C        64       56.119643   45.741990   49.118056   x
            x    C        65       57.591072   57.687654   30.853678   x
            x    C        66       57.512906   57.590709   36.885440   x
            x    C        67       58.928021   60.081527   30.880624   x
            x    C        68       60.230877   57.575850   36.897081   x
            x    C        69       57.514337   57.479854   42.957768   x
            x    C        70       57.472872   57.381808   48.991938   x
            x    C        71       58.861557   59.839793   42.960180   x
            x    C        72       60.215104   57.346701   48.987301   x
            x    C        73       45.478546   64.662143   30.698216   x
            x    C        74       45.445133   64.560700   36.830073   x
            x    C        75       46.848267   67.008969   30.705237   x
            x    C        76       48.116961   64.561921   36.867071   x
            x    C        77       49.512048   62.337268   30.728104   x
            x    C        78       49.464176   62.235116   36.867894   x
            x    C        79       50.869344   64.694614   30.735488   x
            x    C        80       52.146781   62.234877   36.887257   x
            x    C        81       45.425577   64.490176   42.956956   x
            x    C        82       45.391240   64.392638   49.242112   x
            x    C        83       46.802036   66.830349   43.006148   x
            x    C        84       48.067017   64.390395   49.191474   x
            x    C        85       49.455969   62.153914   42.991249   x
            x    C        86       49.412362   62.059258   49.147695   x
            x    C        87       50.821857   64.503286   43.010531   x
            x    C        88       52.095633   62.058256   49.127429   x
            x    C        89       53.549836   60.016004   30.770215   x
            x    C        90       53.488619   59.910808   36.881880   x
            x    C        91       54.899080   62.389274   30.781901   x
            x    C        92       56.177078   59.907321   36.892372   x
            x    C        93       53.485025   59.818715   42.975948   x
            x    C        94       53.429027   59.726099   49.074194   x
            x    C        95       54.843821   62.173131   42.983250   x
            x    C        96       56.130407   59.716595   49.021390   x
            x    C        97       57.606520   53.012731   30.749391   x
            x    C        98       57.516878   52.930410   36.850681   x
            x    C        99       58.946647   55.359052   30.823979   x
            x    C       100       60.234733   52.929752   36.858207   x
            x    C       101       57.507254   52.832366   42.950205   x
            x    C       102       57.470519   52.718189   49.059665   x
            x    C       103       58.850095   55.162386   42.954052   x
            x    C       104       60.200095   52.701514   49.064242   x
            x    C       105       45.487917   59.996445   30.720363   x
            x    C       106       45.433406   59.901043   36.827499   x
            x    C       107       46.832692   62.333926   30.712903   x
            x    C       108       48.115552   59.901677   36.850754   x
            x    C       109       49.522808   57.669240   30.744545   x
            x    C       110       49.456602   57.574197   36.855164   x
            x    C       111       50.864158   60.010371   30.742303   x
            x    C       112       52.143249   57.575770   36.865512   x
            x    C       113       45.421702   59.831781   42.959146   x
            x    C       114       45.370052   59.727541   49.169888   x
            x    C       115       46.772243   62.161761   42.973145   x
            x    C       116       48.057440   59.723870   49.126650   x
            x    C       117       49.448155   57.496985   42.969203   x
            x    C       118       49.396612   57.393886   49.083823   x
            x    C       119       50.798380   59.828220   42.979382   x
            x    C       120       52.087992   57.389601   49.065011   x
            x    C       121       53.558126   55.346748   30.766070   x
            x    C       122       53.484014   55.252315   36.858791   x
            x    C       123       54.889866   57.689566   30.788919   x
            x    C       124       56.177177   55.254824   36.864295   x
            x    C       125       53.474432   55.162595   42.952301   x
            x    C       126       53.430545   55.056675   49.050058   x
            x    C       127       54.823542   57.493812   42.961856   x
            x    C       128       56.126039   55.040038   49.039036   x
            x    H       129       27.259576   41.378894   30.294347   x
            x    H       130       28.247355   39.540289   37.045081   x
            x    H       131       27.252755   41.172535   42.981463   x
            x    H       132       28.154522   39.367828   49.136691   x
            x    H       133       41.843762   30.268171   30.055274   x
            x    C       134       42.890235   32.050712   30.011650   x
            x    H       135       44.506399   30.161820   37.127284   x
            x    H       136       41.717662   30.108445   43.087115   x
[...]
 C   202 -- C   216       -0.09      0.00      5.39707
 C    81 -- C    87       -0.09     -0.00      5.39731
 C   260 -- C   294       -0.09      0.00      5.39734
 C    53 -- C   395       -0.09      0.00      5.39739
 C    66 -- C   100       -0.09      0.00      5.39742
 C   345 -- C   351       -0.09     -0.00      5.39761
 C    82 -- C   492       -0.10     -0.00      5.39776
 C   264 -- C   424       -0.10      0.00      5.39780
 C   277 -- C   299       -0.09     -0.00      5.39795
 C   208 -- C   298       -0.09      0.00      5.39812
 C    36 -- C    50       -0.09     -0.00      5.39831
 C   373 -- C   379       -0.10      0.00      5.39909
 C   316 -- C   374       -0.09      0.00      5.39952
 C   229 -- C   373       -0.09      0.00      5.39961
 C    69 -- C    95       -0.09      0.00      5.39991
 C   211 -- C   221       -0.09      0.00      5.40081
 H   591 -- Li  594       -0.03     -0.00      5.40083
 C   185 -- C   299       -0.09      0.00      5.40124
 C   254 -- C   284       -0.09     -0.00      5.40144
 C   289 -- C   299       -0.09      0.00      5.40352
 C   237 -- C   275       -0.09      0.00      5.40361
 C   481 -- C   489       -0.09      0.00      5.40445
 C   327 -- C   333       -0.09     -0.00      5.40480
 C   143 -- C   219       -0.07      0.00      5.40724
 C    94 -- C   128       -0.09      0.00      5.40726
 C   349 -- C   363       -0.09      0.00      5.40788
 C   212 -- C   230       -0.08     -0.00      5.40798
 C    97 -- C   123       -0.09      0.00      5.40819
 C   205 -- C   263       -0.09      0.00      5.40826
 C   253 -- C   413       -0.09     -0.00      5.40864
 C   191 -- C   221       -0.09      0.00      5.40896
 C   211 -- C   315       -0.09      0.00      5.40916
 C   181 -- C   287       -0.08      0.00      5.41005
 C   213 -- C   313       -0.09      0.00      5.41012
 C   330 -- C   394       -0.09      0.00      5.41030
 C   427 -- C   445       -0.08      0.00      5.41035
 C   188 -- C   286       -0.08      0.00      5.41055
 C    96 -- C   567       -0.09      0.00      5.41143
 C    99 -- C   521       -0.09      0.00      5.41150
 C   420 -- C   444       -0.08      0.00      5.41178
 C   293 -- C   295       -0.09      0.00      5.41191
 C   204 -- C   294       -0.08      0.00      5.41223
 C   218 -- C   386       -0.09     -0.00      5.41235
 C    75 -- C   463       -0.09     -0.00      5.41281
 C    49 -- C   391       -0.09     -0.00      5.41294
 C   470 -- C   547       -0.09     -0.00      5.41336
 C   197 -- C   199       -0.09     -0.00      5.41342
 C   285 -- C   287       -0.09      0.00      5.41500
 C    56 -- C   342       -0.09     -0.00      5.41542
 C   466 -- C   538       -0.09     -0.00      5.41552
 C   444 -- C   492       -0.09      0.00      5.41581
 C   339 -- C   497       -0.09     -0.00      5.41641
 C   186 -- C   192       -0.09     -0.00      5.41642
 C    70 -- C   104       -0.09      0.00      5.41744
 C   262 -- C   292       -0.09      0.00      5.41813
 C    65 -- C    91       -0.09      0.00      5.41828
 C   252 -- C   406       -0.09     -0.00      5.41842
 C   343 -- C   506       -0.09      0.00      5.41891
 C   313 -- C   319       -0.09      0.00      5.41943
 C    52 -- C   338       -0.09     -0.00      5.41946
 C   189 -- C   255       -0.09      0.00      5.42090
 C    68 -- C   556       -0.09     -0.00      5.42167
 C    71 -- C   516       -0.09     -0.00      5.42203
 C    83 -- C   467       -0.09     -0.00      5.42261
 C   198 -- C   204       -0.09     -0.00      5.42328
 C   193 -- C   219       -0.09      0.00      5.42397
 C   205 -- C   207       -0.09     -0.00      5.42419
 C   230 -- C   318       -0.09     -0.00      5.42447
 C   186 -- C   212       -0.09      0.00      5.42453
 C   182 -- C   188       -0.09     -0.00      5.42483
 C   242 -- C   328       -0.09      0.00      5.42564
 C   220 -- C   238       -0.09      0.00      5.42572
 C   261 -- C   427       -0.09     -0.00      5.42806
 C   231 -- C   323       -0.09     -0.00      5.43088
 C   423 -- C   489       -0.08      0.00      5.43448
 C   190 -- C   284       -0.08      0.00      5.43581
 C   430 -- C   480       -0.08      0.00      5.43592
 C   238 -- C   314       -0.08     -0.00      5.44040
 C   422 -- C   430       -0.08      0.00      5.44396
 C   229 -- C   235       -0.08      0.00      5.44441
 C   189 -- C   191       -0.08      0.00      5.44878
 C   206 -- C   292       -0.08     -0.00      5.44896
 C   227 -- C   309       -0.08     -0.00      5.45031
 C   183 -- C   237       -0.07      0.00      5.45043
 C   319 -- C   361       -0.08      0.00      5.45045
 C   377 -- C   391       -0.08      0.00      5.45456
 C   185 -- C   235       -0.07      0.00      5.46913
 H   588 -- Li  596       -0.03     -0.00      5.47503
 C    72 -- C   560       -0.07     -0.00      5.48752
 C    67 -- C   511       -0.07     -0.00      5.48864
 C   260 -- C   420       -0.08     -0.00      5.48878
 C   234 -- C   332       -0.07     -0.00      5.49062
 C   181 -- C   183       -0.08     -0.00      5.50491
 H   141 -- Li  596       -0.02      0.00      5.52834
 C   134 -- Li  598       -0.06      0.00      5.63005
 H   142 -- Li  596       -0.02      0.00      5.63061
 C   188 -- C   203       -0.04     -0.00      5.65334
=============================================================


============== Orbital energy and occupancy information for spin 1 =============

      Total number of orbitals:    2099
        Occupancy sum (kernel):    1039.000000001
   Occupancy sum (eigenvalues):    1039.000000001
                 HOMO-LUMO gap:       0.001347618 Eh
                 Mid-gap level:      -0.081879042 Eh

                        Orbital | Energy (Eh) | Occupancy
                            1    -1.895647248   1.0000000
                        .......   ...........   .........
                         1031    -0.119563410   0.9999881
                         1032    -0.118882877   0.9999851
                         1033    -0.116606982   0.9999703
                         1034    -0.103370006   0.9980899
                         1035    -0.093723971   0.9623842
                         1036    -0.089180800   0.8536730
                         1037    -0.088146783   0.8096966
                         1038    -0.085772881   0.6672705
                         1039    -0.084654911   0.5868715
                         1040    -0.082552851   0.4221097
                        ....... -- gap at 0K -- .........
                         1041    -0.081205233   0.3238170
                         1042    -0.078131796   0.1538946
                         1043    -0.075730610   0.0779801
                         1044    -0.075221961   0.0668466
                         1045    -0.073928743   0.0469585
                         1046    -0.068602084   0.0088684
                         1047    -0.067941181   0.0071608
                         1048    -0.067137448   0.0055705
                         1049    -0.064792425   0.0026586
                         1050    -0.064547059   0.0024646
                        .......   ...........   .........
                         2099     0.788365142   0.0000000

================================================================================

============== Orbital energy and occupancy information for spin 2 =============

      Total number of orbitals:    2099
        Occupancy sum (kernel):    1038.000000001
   Occupancy sum (eigenvalues):    1038.000000001
                 HOMO-LUMO gap:       0.002151898 Eh
                 Mid-gap level:      -0.082830877 Eh

                        Orbital | Energy (Eh) | Occupancy
                            1    -1.895626676   1.0000000
                        .......   ...........   .........
                         1030    -0.123064316   0.9999937
                         1031    -0.119208659   0.9999798
                         1032    -0.118583889   0.9999752
                         1033    -0.115951102   0.9999443
                         1034    -0.102770141   0.9964636
                         1035    -0.093337115   0.9365173
                         1036    -0.088408852   0.7488302
                         1037    -0.087516685   0.6943296
                         1038    -0.085017729   0.5072089
                         1039    -0.083906826   0.4222490
                        ....... -- gap at 0K -- .........
                         1040    -0.081754928   0.2701025
                         1041    -0.080594049   0.2048147
                         1042    -0.077548502   0.0896275
                         1043    -0.075208287   0.0446188
                         1044    -0.074874831   0.0401638
                         1045    -0.073537911   0.0275824
                         1046    -0.068267481   0.0052140
                         1047    -0.067471693   0.0040419
                         1048    -0.066747629   0.0032160
                         1049    -0.064333792   0.0015013
                        .......   ...........   .........
                         2099     0.788383775   0.0000000

================================================================================

===================== Writing canonical molecular orbitals =====================
    Spin 1
| Orbital  Energy (eV)  Norm     |
| HOMO     -2.24637739  1.000000 | Writing "592nano_HOMO_UP.cube" ... done
Writing "592nano_HOMO_UP.dx" ... done
| LUMO     -2.20970683  1.000000 | Writing "592nano_LUMO_UP.cube" ... done
Writing "592nano_LUMO_UP.dx" ... done
================================================================================

===================== Writing canonical molecular orbitals =====================
    Spin 2
| Orbital  Energy (eV)  Norm     |
| HOMO     -2.28322091  1.000000 | Writing "592nano_HOMO_DN.cube" ... done
Writing "592nano_HOMO_DN.dx" ... done
| LUMO     -2.22466479  1.000000 | Writing "592nano_LUMO_DN.cube" ... done
Writing "592nano_LUMO_DN.dx" ... done
================================================================================
 
=============== Density of States (DOS) calculation for UP spin ================
Writing "592nano_UP_DOS.txt" ...  done
================================================================================
 
============== Density of States (DOS) calculation for DOWN spin ===============
Writing "592nano_DN_DOS.txt" ...  done
================================================================================
 
Writing bands to file "592nano.val_bands" ... done
 
================ Projected Density of States (pDOS) calculation ================
 
Constructing AM resolved functions  ...... done
Writing NGWF plot files in formats: CUBE DX ...  done
 
Performing overlap integrals ...  done
 
Computing pDOS weights ...  done
 
All bands spilling parameter =   4.72 %
Occupancy-weighted spilling parameter =   0.96 %
 
 => Outputting data for OptaDOS <=
 
Writing pDOS weights to file "592nano.val_pdos_bin" ... done
 
Writing band gradients to file "592nano.val_dome_bin" ... done
 
Writing Castep output cell file to "592nano-out.cell" ... done
 
 => Computing Gaussian smeared pDOS for UP spin<= 
Writing "592nano_UP_PDOS.txt" ...  done
 
 => Computing Gaussian smeared pDOS for DOWN spin<= 
Writing "592nano_DN_PDOS.txt" ...  done
 
 => Computing Occupancy-weighted Gaussian smeared pDOS for UP spin<= 
Writing "592nano_occ_UP_PDOS.txt" ...  done
  => Band centres for UP spin channel: 
 S band centre of group 1:  -15.285373 eV
 P band centre of group 1:   -7.810941 eV
  Band centres for UP spin channel done. <= 
  => Integrated number of electrons in each AM band for UP spin channel: 
 S num electrons of group 1:  276.314531
 P num electrons of group 1:  752.757985
  Integrated number of electrons for UP spin channel done. <= 
 
 => Computing Occupancy-weighted Gaussian smeared pDOS for DOWN spin<= 
Writing "592nano_occ_DN_PDOS.txt" ...  done
  => Band centres for DOWN spin channel: 
 S band centre of group 1:  -15.282771 eV
 P band centre of group 1:   -7.818251 eV
  Band centres for DOWN spin channel done. <=
  => Integrated number of electrons in each AM band for DOWN spin channel: 
 S num electrons of group 1:  276.305695
 P num electrons of group 1:  751.780520
  Integrated number of electrons for DOWN spin channel done. <=
================================================================================

================================= Core Density =================================
               Core den box size:   21 x  21 x  21
================================================================================
======================= Empirical dispersion information =======================
Model : Grimme D2
================================================================================

------------------------------ TIMING INFORMATION ------------------------------
AVERAGE TIME:    7584.530s on    140 node(s)                                    
TOTAL TIME:      7584.531s on    140 node(s)                                    
================= AVERAGE TIMINGS FROM ALL NODES (CUMULATIVE) ==================
|| TAG                                    #calls    cpu time   %total  Gflops ||
|| work_imbalance                       :     1        0.00s   0.000%  ------ ||
|| linalg_invert_sym_matrix             :     1        0.00s   0.000%  ------ ||
|| sparse_set_to_garbage                :   153        0.01s   0.000%  ------ ||
|| ewald_calculate_forces_realspace     :     3        0.01s   0.000%  ------ ||
|| paw_dij_hartree                      :   300        0.01s   0.000%  ------ ||
|| paw_sphere_density_on_grid           :     1        0.01s   0.000%  ------ ||
|| ngwfs_initialise_from_radial         :     1        0.02s   0.000%  ------ ||
|| basis_extract_function_from_box      :   344        0.02s   0.000%  ------ ||
|| paw_tcore_density                    :     3        0.03s   0.000%  ------ ||
|| augmentation_density_forces          :     3        0.25s   0.003%  ------ ||
|| paw_dataset_init                     :     3        0.38s   0.005%  ------ ||
|| ewald_calculate_energy               :     3        0.39s   0.005%  ------ ||
|| paw_tcore_hartree_on_grid            :     3        0.41s   0.005%  ------ ||
|| restart_hamiltonian_write            :    13        0.61s   0.008%  ------ ||
|| restart_hamiltonian_read             :     3        0.70s   0.009%  ------ ||
|| restart_kernel_write                 :    13        0.85s   0.011%  ------ ||
|| ewald_calculate_forces_recipspace    :     3        0.99s   0.013%  ------ ||
|| density_init_guess_real              :     3        1.01s   0.013%  ------ ||
|| ewald_calculate_forces               :     3        1.03s   0.014%  ------ ||
|| paw_nlcc_calculate_forces            :     3        1.28s   0.017%  ------ ||
|| dense_normal_eigensolve              :     1        1.29s   0.017%  ------ ||
|| pseudo_make_structure_factor         :     3        1.41s   0.019%  ------ ||
|| integrals_grad                       :     3        2.36s   0.031%  ------ ||
|| nonsc_forces_ngwfs_calc              :     3        2.36s   0.031%  ------ ||
|| sparse_init                          :     3        2.49s   0.033%  ------ ||
|| restart_ngwfs_tightbox_input         :     3        2.63s   0.035%  ------ ||
|| paw_tcore_hartree_calc_forces        :     3        3.20s   0.042%  ------ ||
|| augmentation_screen_dij              :   230        4.69s   0.062%  ------ ||
|| sparse_embed_hotelling_invert_embed  :    19        4.72s   0.062%  ------ ||
|| ngwf_gradient_coeffs                 :    10        5.37s   0.071%  ------ ||
|| paw_species_calc_proj_prec_mat       :     3        5.68s   0.075%  ------ ||
|| sw_init                              :     1        7.53s   0.099%  ------ ||
|| basis_copy_function_to_box           :  9520        8.96s   0.118%  ------ ||
|| fourier_apply_box_pair               :   768        8.99s   0.119%  1.976k ||
|| hartree_on_grid                      :   225       13.02s   0.172%  ------ ||
|| projectors_func_grad_ovlp_box        :     9       15.60s   0.206%  ------ ||
|| aug_nl_calculate_forces              :     3       18.44s   0.243%  ------ ||
|| paw_dij_xc                           :   300       19.61s   0.259%  ------ ||
|| projectors_init_fftbox_recip         :    72       22.87s   0.302%  ------ ||
|| integrals_kinetic                    :    19       30.15s   0.398%  ------ ||
|| sparse_trace                         :  5414       30.80s   0.406%  ------ ||
|| projectors_func_ovlp_box             :    20       31.61s   0.417%  ------ ||
|| function_ops_brappd_ketppd           :    38       32.54s   0.429%  ------ ||
|| augmentation_density_on_grid         :   226       34.95s   0.461%  ------ ||
|| fourier_apply_cell_forward           :  2044       45.82s   0.604% 155.280 ||
|| fourier_apply_cell_backward          :  2044       47.62s   0.628% 149.396 ||
|| aug_nonlocal_mat                     :   287       52.74s   0.695%  ------ ||
|| basis_dot_function_with_box          : 2.137M      58.55s   0.772%  ------ ||
|| eigenstates_pdos                     :     1       71.37s   0.941%  ------ ||
|| restart_ngwfs_tightbox_output        :     8       73.75s   0.972%  ------ ||
|| forces_calculate                     :     3       89.42s   1.179%  ------ ||
|| hamiltonian_energy_components        :     3       91.03s   1.200%  ------ ||
|| xc_energy_potential                  :   227       91.77s   1.210%  ------ ||
|| sparse_product                       :  5333      143.30s   1.889%  ------ ||
|| eigenstates_calculate                :     1      149.03s   1.965%  ------ ||
|| dense_eigensolve                     :   398      152.56s   2.012%  ------ ||
|| basis_add_function_to_box            : 6.498M     216.24s   2.851%  ------ ||
|| integrals_locpot_mat_els_batch       :   298      253.24s   3.339%  ------ ||
|| cell_grid_deposit_box_real           : 16847      306.78s   4.045%  ------ ||
|| edft_diag_ngwf_ham                   :   396      410.70s   5.415%  ------ ||
|| cell_grid_extract_box_real           :  5387      414.96s   5.471%  ------ ||
|| projectors_gradient_batch            :    20      457.71s   6.035%  ------ ||
|| density_batch_row_sums               :   452      535.65s   7.062%  ------ ||
|| density_fftbox_deposit_to_cell       :  7684      570.58s   7.523%  ------ ||
|| projectors_grad_precond_batch        :    20      650.70s   8.579%  ------ ||
|| potential_apply_to_ngwf_batch        :   298      652.37s   8.601%  ------ ||
|| edft_apply_smearing_operator         :   198      691.76s   9.121%  ------ ||
|| fourier_apply_box                    : 31802      711.24s   9.378%  3.279k ||
|| density_fftbox_interpolate_multiply  :  7684      719.39s   9.485%  ------ ||
|| integrals_locpot_dbl_grid            :   149      910.44s  12.004%  ------ ||
|| properties_calculate                 :     1     1131.58s  14.920%  ------ ||
|| ngwf_gradient_build_batch            :    20     1237.12s  16.311%  ------ ||
|| ngwf_gradient_batch                  :    20     1352.68s  17.835%  ------ ||
|| density_batch_interp_deposit         :   452     1669.75s  22.015%  ------ ||
|| ngwf_gradient_lnv                    :    10     1764.20s  23.260%  ------ ||
|| density_on_dbl_grid                  :   226     2309.03s  30.444%  ------ ||
|| hamiltonian_lhxc_calculate           :   218     2400.60s  31.651%  ------ ||
|| edft_calculate                       :    10     3910.71s  51.562%  ------ ||
|| ngwf_cg_optimise                     :     3     6295.59s  83.006%  ------ ||
|| total_time                           :     1     7584.53s 100.000%  ------ ||
================================================================================
Overhead of generating timer report: 
- 0 ms averaging over threads,
- 28 ms ensuring consistency across MPI ranks,
- 0 ms printing in order.

Job completed: 04-06-2020 13:50 (+0100)

