 +---------------------------------------------------------------+
 |                                                               |
 |        ####### #     # ####### ####### ####### ######         |
 |        #     # ##    # #          #    #       #     #        |
 |        #     # # #   # #          #    #       #     #        |
 |        #     # #  #  # #####      #    #####   ######         |
 |        #     # #   # # #          #    #       #              |
 |        #     # #    ## #          #    #       #              |
 |        ####### #     # #######    #    ####### #              |
 |                                                               |
 |        Linear-Scaling Ab Initio Total Energy Program          |
 |                                                               |
 |          Release for academic collaborators of ODG            |
 |                                             Version 5.3.2.12  |
 |                                                               |
 +---------------------------------------------------------------+
 |                                                               |
 |  Authors:                                                     |
 |  Jacek Dziedzic, Peter D. Haynes, Nicholas D. M. Hine,        |
 |  Arash. A. Mostofi, Mike C. Payne and Chris-Kriton Skylaris   |
 |                                                               |
 |  Contributors:                                                |
 |  J. Aarons, L. Andrinopoulos, P. W. Avraam, R. A. Bell,       |
 |  A. Bhandari, G. A. Bramley, R. J. Charlton, S. J. Clark,     |
 |  R. J. Clements, G. C. Constantinescu, F. Corsetti,           |
 |  N. Corsini, O. Dieguez, S. M. M. Dubois, K. K. B. Duff,      |
 |  J. M. Escartin, A. Greco, H. Helal, Q. O. Hill, L. P. Lee,   |
 |  J.-H. Li, E. B. Linscott, G. Moynihan, D. D. O`Regan,        |
 |  O. K. Okan, M. J. S. Phipps, C. J. Pickard,                  |
 |  J. C. A. Prentice, M. I. J. Probert, L. E. Ratcliff,         |
 |  M. Robinson, A. Ruiz Serrano, J. S. Spencer, E. W. Tait,     |
 |  G. Teobaldi, D. Turban, V. Vitale, K. A. Wilkinson,          |
 |  C. Weber, J. C. Womack, N. Yeung and T. J. Zuehlsdorff       |
 |                                                               |
 |                                   Copyright (c) 2004-2020     |
 |                                                               |
 |  Please cite:                                                 |
 |  "Introducing ONETEP: Linear-scaling density functional       |
 |   simulations on parallel computers".                         |
 |   C.-K. Skylaris, P. D. Haynes, A. A. Mostofi, M. C. Payne.   |
 |   J. Chem. Phys. 122 084119 (2005).                           |
 |                                                               |
 |          in all publications arising from your use of ONETEP. |
 |                                                               |
 +---------------------------------------------------------------+
 |                                                               |
 |   ONETEP is based on developments described in the following  |
 |   publications:                                               |
 |                                                               |
 |  "Nonorthogonal generalized Wannier function pseudopotential  |
 |   plane-wave method".                                         |
 |   C.-K. Skylaris, A. A. Mostofi, P. D. Haynes, O. Dieguez,    |
 |   M. C. Payne.                                                |
 |   Phys. Rev. B 66 035119 (2002).                              |
 |                                                               |
 |  "Preconditioned iterative minimization for linear-scaling    |
 |   electronic structure calculations".                         |
 |   A. A. Mostofi, P. D. Haynes, C.-K. Skylaris, M. C. Payne.   |
 |   J. Chem. Phys. 119(17), pp.8842-8848 (2003).                |
 |                                                               |
 |  "Total-energy calculations on a real space grid with         |
 |   localized functions and a plane-wave basis".                |
 |   A. A. Mostofi, C.-K. Skylaris, P. D. Haynes, M. C. Payne.   |
 |   Comput. Phys. Commun. 147, pp.788-802 (2002).               |
 |                                                               |
 |  "Accurate kinetic energy evaluation in electronic structure  |
 |   calculations with localized functions on real space grids"  |
 |   C.-K. Skylaris, A. A. Mostofi, P. D. Haynes, C. J. Pickard, |
 |   M. C. Payne.                                                |
 |   Comput. Phys. Commun. 140, pp.315-322 (2001).               |
 |                                                               |
 |  "Accurate ionic forces and geometry optimization in linear-  |
 |   scaling density-functional theory with local orbitals"      |
 |   N. D. M. Hine, M. Robinson, P. D. Haynes, C.-K. Skylaris,   |
 |   M. C. Payne, and A. A. Mostofi.                             |
 |   Phys. Rev. B 83 195102 (2011).                              |
 |                                                               |
 +---------------------------------------------------------------+

Job started: 17-05-2020 08:08 (+0100)
 
Reading parameters from file "6/592nano.dat" ...... done

If your calculation crashes here, before "Checking processes and threads..."
is displayed, then your stack size is insufficient.
If so, use "ulimit -s unlimited" at runtime.
You can disable this check with "check_stack_size F".

Checking processes and threads...
   Determining the default number of threads...
      No default threads set at compilation time: defaulting to 1.
      OpenMP library call suggests 4 threads.
      Hybrid MPI-OpenMP compilation detected.
      Number of MPI processes > 1.
      OMP_NUM_THREADS environment variable present and
      its value matches the one obtained from the OpenMP library call.
      Using this value as default.
      Default threads: 4
      Default applies to threads_max and threads_num_fftboxes.
      Settings in the input file override this default.
   ... done

   Running with 140 MPI processes.
   There are 10 MPI processes running on the same node as the root process.
   Each MPI process is using: 
               1 threads for simulation cell FFTs.
               1 threads for parallel FFT box operations.
               4 threads for loops over batched FFT box operations.
               4 threads in other parallel regions.
... done

Basic input checks...
Resetting ngwf_cg_rotate to TRUE for EDFT calculations
... done

Reading geometry and species blocks from file "6/592nano.dat" ...    
  Number of PPD points along a3 set to 1.  This is 
  the default value, it may have been provided also in the input file.
... done
 Writing xyz coordinates to file "6/592nano.xyz" ... done


--------------------------------------------------------------------------------
---------------------------------- INPUT FILE ----------------------------------
--------------------------------------------------------------------------------

task : singlepoint                                                              
do_properties : true                                                            
dx_format T                                                                     
edft T                                                                          
output_detail VERBOSE                                                           
write_xyz T                                                                     
dispersion 4                                                                    
xc_functional PBE                                                               
cutoff_energy 830 eV                                                            
paw T                                                                           
geom_disp_tol 0.015 bohr                                                        
geom_energy_tol 1.5E-6 hartree                                                  
geom_force_tol 0.003 "ha/bohr"                                                  
EDFT_MAXIT 30                                                                   
pdos_max_l = 2                                                                  
dos_smear  0.1 eV                                                               
popn_calculate T                                                                
PDOS_PSEUDOATOMIC T                                                             
PDOS_REDUCE_SWS F                                                               
PDOS_CONSTRUCT_BASIS F                                                          
PDOS_LOWDIN T                                                                   
PDOS_ORTH_ATOM_BLOCKS F                                                         
PDOS_LCAO_OPTIMIZE F                                                            
pdos_optados_output T                                                           
homo_plot 0                                                                     
lumo_plot 0                                                                     
homo_dens_plot -1                                                               
lumo_dens_plot -1                                                               
%BLOCK SPECIES                                                                  
C C 6 4 9.0                                                                     
H H 1 1 9.0                                                                     
Li Li 3 5 9.0                                                                   
%ENDBLOCK SPECIES                                                               
%BLOCK SPECIES_POT                                                              
C "~/pp/paw/c_pbe_abinit.paw"                                                   
H "~/pp/paw/h_pbe_abinit.paw"                                                   
Li "~/pp/paw/li_pbe_abinit.paw"                                                 
%ENDBLOCK SPECIES_POT                                                           
%BLOCK SPECIES_ATOMIC_SET                                                       
C "SOLVE conf=2s2 2p2"                                                          
H "SOLVE conf=1s1"                                                              
Li "SOLVE conf=1s2 2s1 2p0"                                                     
%ENDBLOCK SPECIES_ATOMIC_SET                                                    
%BLOCK LATTICE_CART                                                             
94.486315650000      0.000000000000       0.000000000000                        
0.000000000000       94.486315650000      0.000000000000                        
0.000000000000       0.000000000000       94.486315650000                       
%ENDBLOCK LATTICE_CART                                                          
%BLOCK POSITIONS_ABS                                                            
C 45.486964 50.697432 30.685851                                                 
C 45.433448 50.614222 36.809308                                                 
C 46.839077 53.027299 30.696013                                                 
C 48.120411 50.613959 36.822041                                                 
C 49.522912 48.376259 30.691699                                                 
C 49.464386 48.288444 36.820720                                                 
C 50.873262 50.702973 30.691295                                                 
C 52.151714 48.288870 36.831161                                                 
C 45.495935 55.359014 30.701571                                                 
C 45.433849 55.267953 36.827466                                                 
C 46.844386 57.687794 30.707449                                                 
C 48.119594 55.267424 36.834610                                                 
C 49.530076 53.032100 30.698830                                                 
C 49.462293 52.940157 36.833763                                                 
C 50.879910 55.366048 30.689366                                                 
C 52.149074 52.939230 36.836562                                                 
C 45.403949 50.503836 42.958406                                                 
C 45.391023 50.414408 49.106323                                                 
C 46.746789 52.829702 42.966421                                                 
C 48.078338 50.412864 49.118383                                                 
C 49.432336 48.178223 42.964067                                                 
C 49.422821 48.083643 49.112612                                                 
C 50.776152 50.503826 42.973075                                                 
C 52.111503 48.080747 49.124016                                                 
C 45.403797 55.155272 42.966873                                                 
C 45.389742 55.069343 49.122025                                                 
C 46.747268 57.482153 42.976869                                                 
C 48.076391 55.067944 49.143196                                                 
C 49.432887 52.829573 42.975539                                                 
C 49.420523 52.739578 49.138719                                                 
C 50.775825 55.156711 42.986093                                                 
C 52.111900 52.734838 49.153696                                                 
C 57.608819 48.372485 30.661320                                                 
C 57.524013 48.285864 36.831943                                                 
C 58.959212 50.693418 30.628640                                                 
C 60.239765 48.289300 36.838053                                                 
C 57.499313 48.176824 42.965052                                                 
C 57.492231 48.065653 49.124713                                                 
C 58.841025 50.501315 42.967648                                                 
C 60.211036 48.062715 49.099502                                                 
C 53.568447 50.705181 30.675641                                                 
C 53.490941 50.613680 36.835330                                                 
C 54.916738 53.033434 30.643587                                                 
C 56.185623 50.613247 36.832510                                                 
C 53.463144 50.503354 42.976702                                                 
C 53.456361 50.407873 49.142459                                                 
C 54.806175 52.830096 42.983133                                                 
C 56.153192 50.400898 49.143883                                                 
C 57.602046 43.724527 30.690078                                                 
C 57.527181 43.627339 36.831177                                                 
C 58.944582 46.032491 30.677483                                                 
C 60.244539 43.644849 36.837619                                                 
C 57.496355 43.530831 42.950220                                                 
C 57.481849 43.405663 49.093434                                                 
C 58.836970 45.845371 42.952848                                                 
C 60.198164 43.416559 49.067611                                                 
C 53.559758 46.050656 30.681943                                                 
C 53.496537 45.959676 36.830740                                                 
C 54.911050 48.376432 30.673280                                                 
C 56.188366 45.960121 36.830981                                                 
C 53.462934 45.854010 42.964381                                                 
C 53.452416 45.748852 49.112584                                                 
C 54.805615 48.176195 42.969791                                                 
C 56.148760 45.744057 49.113738                                                 
C 57.615685 57.698202 30.639371                                                 
C 57.515835 57.600845 36.852416                                                 
C 58.958923 60.090912 30.745245                                                 
C 60.233086 57.583055 36.872388                                                 
C 57.499147 57.474658 42.976749                                                 
C 57.481675 57.394503 49.047436                                                 
C 58.842109 59.836894 42.961770                                                 
C 60.221488 57.362434 48.982087                                                 
C 45.485732 64.678364 30.723156                                                 
C 45.443209 64.574671 36.874457                                                 
C 46.855957 67.024552 30.754492                                                 
C 48.116635 64.575242 36.887185                                                 
C 49.527085 62.357442 30.716556                                                 
C 49.465508 62.250758 36.870914                                                 
C 50.884628 64.712193 30.744464                                                 
C 52.148646 62.248763 36.880008                                                 
C 45.390356 64.462841 42.977929                                                 
C 45.387840 64.389208 49.133454                                                 
C 46.761836 66.808181 42.980289                                                 
C 48.060580 64.393631 49.165766                                                 
C 49.428854 62.136434 42.994328                                                 
C 49.415093 62.065345 49.177010                                                 
C 50.788342 64.487777 42.995473                                                 
C 52.099117 62.067474 49.177314                                                 
C 53.571741 60.037023 30.666902                                                 
C 53.491846 59.925142 36.861093                                                 
C 54.925072 62.408790 30.704776                                                 
C 56.179462 59.918813 36.864159                                                 
C 53.463849 59.808776 42.996209                                                 
C 53.436200 59.736983 49.150779                                                 
C 54.817575 62.164195 42.990198                                                 
C 56.133774 59.729272 49.067090                                                 
C 57.612444 53.019265 30.611358                                                 
C 57.521233 52.941430 36.834563                                                 
C 58.962941 55.361374 30.627354                                                 
C 60.237245 52.937189 36.844750                                                 
C 57.500218 52.826972 42.977209                                                 
C 57.494503 52.727348 49.130936                                                 
C 58.839152 55.157727 42.972539                                                 
C 60.222504 52.712619 49.095962                                                 
C 45.495370 60.017431 30.711459                                                 
C 45.436660 59.920900 36.842126                                                 
C 46.843146 62.353470 30.714603                                                 
C 48.118327 59.919687 36.849566                                                 
C 49.536773 57.692756 30.700490                                                 
C 49.461794 57.593766 36.844299                                                 
C 50.883032 60.032036 30.693987                                                 
C 52.148212 57.591949 36.846653                                                 
C 45.399875 59.808120 42.975792                                                 
C 45.387014 59.728022 49.136303                                                 
C 46.745524 62.139473 42.984274                                                 
C 48.072941 59.728624 49.162437                                                 
C 49.431939 57.481100 42.987196                                                 
C 49.417709 57.399187 49.162100                                                 
C 50.778028 59.814630 42.996199                                                 
C 52.104731 57.396473 49.163525                                                 
C 53.572234 55.367069 30.653448                                                 
C 53.489032 55.268934 36.839491                                                 
C 54.910959 57.706849 30.628432                                                 
C 56.181618 55.267101 36.837964                                                 
C 53.464111 55.153214 42.989156                                                 
C 53.452149 55.064727 49.154228                                                 
C 54.809254 57.486052 42.990818                                                 
C 56.145378 55.050157 49.128715                                                 
H 27.291685 41.368304 30.944873                                                 
H 28.279723 39.570641 36.921372                                                 
H 27.247511 41.163010 42.922309                                                 
H 28.205042 39.358654 48.957808                                                 
H 41.848731 30.258505 30.723981                                                 
C 42.884856 32.049421 30.676499                                                 
H 44.476689 30.218918 36.812573                                                 
H 41.716772 30.100932 42.831381                                                 
C 42.765624 31.883698 42.866850                                                 
H 44.387896 30.003592 48.944092                                                 
H 29.600694 37.296104 30.812584                                                 
C 30.646286 39.065403 30.590913                                                 
H 32.322648 37.234485 37.322957                                                 
H 33.691297 34.876162 29.847396                                                 
C 34.724048 36.665450 29.971081                                                 
H 29.578282 37.110974 42.851437                                                 
C 30.600710 38.908307 42.920253                                                 
H 32.246367 37.028546 48.948331                                                 
H 33.624908 34.780364 42.879924                                                 
C 34.661160 36.572167 42.947881                                                 
H 37.814212 32.555574 30.309622                                                 
C 38.827025 34.362769 30.299036                                                 
H 40.445381 32.543620 36.943646                                                 
H 37.681931 32.438190 42.865365                                                 
C 38.715177 34.231979 42.920478                                                 
H 40.355867 32.343568 48.941682                                                 
H 46.519949 30.286704 30.823593                                                 
H 46.394827 30.108547 42.854049                                                 
H 25.916003 48.294909 37.410401                                                 
C 27.982867 48.299544 37.338420                                                 
H 25.877676 48.073480 49.079935                                                 
C 27.947972 48.074083 49.109131                                                 
H 25.928015 43.601012 37.177657                                                 
H 27.249991 46.077180 30.184972                                                 
C 27.995442 43.595360 37.115207                                                 
H 25.868245 43.406566 49.017962                                                 
H 27.254490 45.820024 43.059520                                                 
C 27.936245 43.388635 49.056741                                                 
H 25.922212 57.652731 36.950244                                                 
H 27.327619 60.078945 30.816516                                                 
C 27.991358 57.667193 36.928614                                                 
H 25.869601 57.424575 49.033932                                                 
H 27.243681 59.842061 42.938746                                                 
C 27.937328 57.443153 49.073519                                                 
H 25.922450 53.006458 37.267645                                                 
H 27.320723 55.433040 30.524115                                                 
C 27.990289 52.998303 37.181177                                                 
H 25.878520 52.758046 49.083671                                                 
H 27.252391 55.183965 43.013088                                                 
C 27.948656 52.757706 49.112695                                                 
C 29.339142 41.362884 30.670925                                                 
C 29.300915 41.365766 37.001385                                                 
C 30.603633 43.737726 30.427195                                                 
C 32.004170 41.289727 37.058433                                                 
C 33.333503 38.959762 30.279545                                                 
C 33.363336 39.022539 37.203906                                                 
C 34.690740 41.355174 30.371081                                                 
C 36.045926 38.971643 37.350636                                                 
C 29.319609 46.068176 30.198578                                                 
C 29.278352 45.974554 37.240042                                                 
C 30.629156 48.410841 30.026895                                                 
C 32.001531 45.957541 37.119034                                                 
C 33.347438 43.696717 30.411052                                                 
C 33.346272 43.636971 37.057868                                                 
C 34.703779 46.046723 30.416001                                                 
C 36.040827 43.635391 37.026425                                                 
C 29.314606 41.141916 42.954799                                                 
C 29.224736 41.155808 49.026584                                                 
C 30.604666 43.530210 43.018309                                                 
C 31.941564 41.076526 49.056130                                                 
C 33.313312 38.834134 42.971081                                                 
C 33.283217 38.817798 49.017205                                                 
C 34.656008 41.195219 43.011134                                                 
C 35.964538 38.749028 49.045751                                                 
C 29.323387 45.822362 43.056429                                                 
C 29.231511 45.775392 49.100214                                                 
C 30.603371 48.177307 43.071055                                                 
C 31.950257 45.756583 49.113589                                                 
C 33.321284 43.513562 43.019675                                                 
C 33.287733 43.438752 49.093408                                                 
C 34.656614 45.848150 43.021482                                                 
C 35.978281 43.428353 49.098992                                                 
C 41.452585 39.024947 30.519895                                                 
C 41.438070 38.973935 36.977766                                                 
C 42.794026 41.371209 30.615371                                                 
C 44.113113 38.973766 36.847691                                                 
C 41.369675 38.866026 42.973963                                                 
C 41.354693 38.774545 49.076770                                                 
C 42.717623 41.198000 42.964734                                                 
C 44.039706 38.770423 49.087960                                                 
C 37.408029 41.350981 30.400800                                                 
C 37.397274 41.321473 37.120309                                                 
C 38.741375 43.686834 30.553057                                                 
C 40.081993 41.302371 37.002347                                                 
C 37.343792 41.189723 43.012368                                                 
C 37.321748 41.104375 49.082211                                                 
C 38.688528 43.523954 42.993421                                                 
C 40.008242 41.098432 49.090121                                                 
C 41.463360 34.352523 30.523391                                                 
C 41.474107 34.339032 36.941680                                                 
C 42.821119 36.700088 30.565408                                                 
C 44.104167 34.308551 36.827704                                                 
C 41.346043 34.197145 42.912429                                                 
C 41.389235 34.134558 49.008258                                                 
C 42.719076 36.541603 42.943997                                                 
C 44.015785 34.098786 49.040117                                                 
C 37.421901 36.627633 30.105493                                                 
C 37.435550 36.681039 37.344313                                                 
C 38.765582 39.007787 30.345863                                                 
C 40.091858 36.619360 37.083144                                                 
C 37.330281 36.515666 42.976795                                                 
C 37.335301 36.473631 49.009570                                                 
C 38.686297 38.865932 43.002340                                                 
C 39.991597 36.423005 49.040604                                                 
C 41.441939 48.365741 30.658871                                                 
C 41.406814 48.290183 36.804722                                                 
C 42.791708 50.692349 30.669388                                                 
C 44.092280 48.288745 36.795495                                                 
C 41.375669 48.177212 42.961144                                                 
C 41.359942 48.087182 49.104899                                                 
C 42.718224 50.503412 42.958145                                                 
C 44.047020 48.086501 49.103181                                                 
C 29.391248 55.421744 30.515464                                                 
C 29.284186 55.284260 37.011501                                                 
C 30.687194 57.714667 30.640809                                                 
C 32.000868 55.297567 36.938825                                                 
C 33.380786 53.068070 30.456227                                                 
C 33.343260 52.967947 36.966372                                                 
C 34.728969 55.380837 30.586829                                                 
C 36.033116 52.953566 36.873382                                                 
C 29.321016 55.182359 43.019574                                                 
C 29.232391 55.056041 49.108963                                                 
C 30.602227 57.473793 42.987409                                                 
C 31.950616 55.073927 49.122197                                                 
C 33.318290 52.831174 43.025334                                                 
C 33.290038 52.742049 49.127248                                                 
C 34.655929 55.156864 42.996757                                                 
C 35.985567 52.743725 49.122503                                                 
C 37.408436 50.700297 30.577467                                                 
C 37.374793 50.622034 36.856376                                                 
C 38.761247 53.030599 30.630606                                                 
C 40.062893 50.617702 36.810526                                                 
C 37.348558 50.502911 42.989486                                                 
C 37.328301 50.415295 49.116248                                                 
C 38.688974 52.828505 42.975349                                                 
C 40.016244 50.415280 49.109822                                                 
C 41.439830 43.697635 30.627437                                                 
C 41.415836 43.633803 36.875842                                                 
C 42.786380 46.031872 30.669846                                                 
C 44.101285 43.633295 36.812347                                                 
C 41.374347 43.524134 42.970175                                                 
C 41.357653 43.432964 49.099201                                                 
C 42.717539 45.851191 42.957432                                                 
C 44.043562 43.431638 49.101289                                                 
C 29.364063 50.755890 30.139784                                                 
C 29.270589 50.654492 37.274553                                                 
C 30.667376 53.082863 30.359443                                                 
C 32.001415 50.645336 37.124446                                                 
C 33.367553 48.389858 30.291556                                                 
C 33.347231 48.303282 37.074994                                                 
C 34.710714 50.715346 30.440268                                                 
C 36.038427 48.295999 36.919431                                                 
C 29.321254 50.502620 43.080683                                                 
C 29.234703 50.415732 49.123338                                                 
C 30.602478 52.828169 43.049134                                                 
C 31.949236 50.415460 49.131068                                                 
C 33.318813 48.173853 43.040445                                                 
C 33.289989 48.088398 49.123722                                                 
C 34.655165 50.502828 43.020795                                                 
C 35.984864 48.086440 49.118798                                                 
C 37.392657 46.031052 30.552391                                                 
C 37.381438 45.966273 36.918875                                                 
C 38.744879 48.364546 30.606627                                                 
C 40.066422 45.959545 36.852304                                                 
C 37.348393 45.847596 42.996315                                                 
C 37.325480 45.761736 49.108367                                                 
C 38.689154 48.177264 42.979266                                                 
C 40.015531 45.758726 49.105815                                                 
C 45.467718 32.064588 30.743916                                                 
C 45.525896 31.999151 36.797743                                                 
C 46.878159 34.377633 30.705109                                                 
C 48.105737 31.997784 36.815330                                                 
H 49.153502 30.213975 36.851210                                                 
H 50.545328 32.631779 30.800430                                                 
C 45.498065 36.716163 30.661872                                                 
C 45.469697 36.649163 36.817334                                                 
C 46.841933 39.046822 30.675860                                                 
C 48.145417 36.650621 36.803431                                                 
C 49.510662 34.420239 30.735419                                                 
C 49.518995 34.309115 36.816142                                                 
C 50.894127 36.705311 30.708433                                                 
C 52.154486 34.349388 36.833453                                                 
C 45.342374 31.887079 42.876216                                                 
C 45.438683 31.783115 49.007623                                                 
C 46.765574 34.199967 42.911766                                                 
C 48.016702 31.779721 49.031236                                                 
H 49.063530 29.995949 48.993465                                                 
H 50.421954 32.442525 42.901002                                                 
C 45.392817 36.545005 42.932110                                                 
C 45.391108 36.444519 49.075839                                                 
C 46.746243 38.868850 42.945228                                                 
C 48.066795 36.441848 49.088370                                                 
C 49.390379 34.235287 42.917237                                                 
C 49.438775 34.094126 49.070610                                                 
C 50.789125 36.522446 42.936832                                                 
C 52.069977 34.128713 49.075366                                                 
H 53.192568 32.558646 36.848489                                                 
H 53.103147 32.335047 49.048486                                                 
C 57.599164 39.103483 30.740324                                                 
C 57.543671 38.950433 36.834927                                                 
C 58.944068 41.358798 30.716917                                                 
C 60.256857 39.023400 36.843960                                                 
C 57.495464 38.913628 42.933639                                                 
C 57.479511 38.725234 49.078232                                                 
C 58.839639 41.168902 42.937236                                                 
C 60.193547 38.792287 49.046684                                                 
C 45.478014 46.038138 30.686734                                                 
C 45.438918 45.961387 36.793155                                                 
C 46.829199 48.369626 30.687810                                                 
C 48.123501 45.961342 36.803642                                                 
C 49.520465 43.718497 30.687269                                                 
C 49.471163 43.635509 36.809028                                                 
C 50.867963 46.045093 30.685208                                                 
C 52.158733 43.636628 36.824559                                                 
C 45.403269 45.852287 42.953245                                                 
C 45.389591 45.758986 49.101271                                                 
C 46.746468 48.177891 42.957473                                                 
C 48.078180 45.757098 49.104143                                                 
C 49.430847 43.527436 42.956826                                                 
C 49.420129 43.428407 49.101831                                                 
C 50.774821 45.851283 42.962745                                                 
C 52.107625 43.426233 49.104688                                                 
C 53.559945 41.395313 30.687694                                                 
C 53.507505 41.304864 36.828374                                                 
C 54.906353 43.716001 30.682015                                                 
C 56.195555 41.311481 36.830917                                                 
C 53.461692 41.200571 42.954163                                                 
C 53.450906 41.088312 49.099674                                                 
C 54.807274 43.521661 42.957631                                                 
C 56.139617 41.089348 49.094435                                                 
H 57.240246 34.898580 36.845608                                                 
H 58.634122 37.312464 30.801175                                                 
H 57.158912 34.669915 49.054447                                                 
H 58.529672 37.122624 42.920514                                                 
C 45.485479 41.379709 30.672438                                                 
C 45.451650 41.308954 36.810194                                                 
C 46.828166 43.709593 30.687948                                                 
C 48.133762 41.309571 36.800010                                                 
C 49.525476 39.056885 30.687866                                                 
C 49.486715 38.977185 36.808192                                                 
C 50.870598 41.385408 30.683756                                                 
C 52.168439 38.980217 36.823537                                                 
C 45.399818 41.199516 42.951724                                                 
C 45.389154 41.102669 49.098043                                                 
C 46.746592 43.525827 42.953145                                                 
C 48.072671 41.101125 49.101505                                                 
C 49.428952 38.872963 42.946749                                                 
C 49.418459 38.766832 49.098199                                                 
C 50.777075 41.194370 42.954866                                                 
C 52.104182 38.765840 49.099668                                                 
C 53.553824 36.761494 30.734786                                                 
C 53.529307 36.631479 36.833250                                                 
C 54.917501 39.035438 30.710867                                                 
C 56.201943 36.690507 36.837340                                                 
C 53.443429 36.573355 42.934415                                                 
C 53.457618 36.413183 49.088777                                                 
C 54.815762 38.846839 42.943226                                                 
C 56.127082 36.464728 49.079259                                                 
H 61.273536 37.221903 36.859545                                                 
H 62.667119 39.622970 30.808370                                                 
H 61.208967 36.990111 49.010490                                                 
H 62.567357 39.442250 42.907405                                                 
H 28.272450 61.695305 36.812702                                                 
H 28.207786 61.475000 48.993029                                                 
C 29.395198 60.099584 30.747977                                                 
C 29.287805 59.895296 36.856800                                                 
C 30.689305 62.331888 30.771942                                                 
C 31.999631 59.968377 36.853796                                                 
C 33.398332 57.722042 30.642482                                                 
C 33.342160 57.607973 36.869143                                                 
C 34.742464 60.037704 30.689955                                                 
C 36.031260 57.609287 36.845721                                                 
H 29.669012 64.129209 30.850738                                                 
H 32.312570 64.013115 36.858888                                                 
C 33.400198 62.398048 30.726127                                                 
C 33.346709 62.222699 36.854269                                                 
C 34.752345 64.659215 30.728527                                                 
C 36.023023 62.283655 36.855005                                                 
C 29.310767 59.863117 42.955504                                                 
C 29.225184 59.676241 49.053875                                                 
C 30.596955 62.096132 42.943694                                                 
C 31.942018 59.753808 49.082683                                                 
C 33.319689 57.490414 42.985472                                                 
C 33.288326 57.392047 49.109431                                                 
C 34.654573 59.807840 42.968352                                                 
C 35.979108 57.402546 49.113822                                                 
H 29.576553 63.895672 42.919990                                                 
H 32.246532 63.802377 48.995355                                                 
C 33.310493 62.168840 42.954383                                                 
C 33.283360 62.013187 49.055232                                                 
C 34.657284 64.429805 42.949335                                                 
C 35.963510 62.081204 49.080311                                                 
C 41.461825 57.688094 30.696523                                                 
C 41.406119 57.597146 36.828390                                                 
C 42.810272 60.016634 30.708742                                                 
C 44.090676 57.595459 36.830660                                                 
C 41.374199 57.482114 42.964349                                                 
C 41.358095 57.398262 49.111130                                                 
C 42.717053 59.808289 42.967322                                                 
C 44.043554 57.399174 49.122036                                                 
C 37.428415 60.034382 30.693688                                                 
C 37.376360 59.928819 36.841674                                                 
C 38.774324 62.354865 30.705867                                                 
C 40.059976 59.930722 36.836700                                                 
C 37.342319 59.814027 42.966417                                                 
C 37.321737 59.726238 49.103912                                                 
C 38.684400 62.137521 42.961686                                                 
C 40.009036 59.732435 49.109765                                                 
C 41.451253 53.027303 30.666689                                                 
C 41.405309 52.943785 36.810266                                                 
C 42.803311 55.356564 30.688849                                                 
C 44.090449 52.941227 36.814298                                                 
C 41.375831 52.829286 42.962968                                                 
C 41.359465 52.742478 49.107287                                                 
C 42.717942 55.155546 42.962936                                                 
C 44.047705 52.741690 49.109848                                                 
C 37.425953 55.370688 30.636546                                                 
C 37.376340 55.276125 36.837531                                                 
C 38.771593 57.692008 30.678953                                                 
C 40.063049 55.273837 36.820385                                                 
C 37.347715 55.157654 42.979131                                                 
C 37.326602 55.068558 49.116095                                                 
C 38.687816 57.481095 42.968232                                                 
C 40.015728 55.071331 49.111771                                                 
C 41.434746 67.025851 30.723593                                                 
C 41.447446 66.887399 36.886666                                                 
C 42.854152 69.341613 30.759231                                                 
C 44.071905 66.919970 36.890870                                                 
C 41.341539 66.808105 42.961831                                                 
C 41.383402 66.698133 49.062590                                                 
C 42.759544 69.122303 42.961569                                                 
C 44.010494 66.734105 49.099842                                                 
H 37.772112 68.785489 30.738763                                                 
H 40.415346 68.679643 36.906237                                                 
H 37.674393 68.563448 42.946308                                                 
H 40.351176 68.490267 49.003309                                                 
C 41.460024 62.352689 30.710823                                                 
C 41.408793 62.251354 36.847331                                                 
C 42.808789 64.677703 30.714169                                                 
C 44.090102 62.252023 36.850932                                                 
C 41.367840 62.139336 42.965271                                                 
C 41.353821 62.057073 49.107614                                                 
C 42.715778 64.464195 42.968496                                                 
C 44.037365 62.060929 49.127392                                                 
H 33.719251 66.451991 30.754409                                                 
H 33.621343 66.222525 42.938105                                                 
C 37.418154 64.707283 30.713334                                                 
C 37.396529 64.554954 36.870882                                                 
C 38.804393 66.991593 30.719964                                                 
C 40.049164 64.602161 36.865082                                                 
C 37.327139 64.486557 42.955083                                                 
C 37.333044 64.357981 49.055176                                                 
C 38.709782 66.770620 42.954921                                                 
C 39.988010 64.409061 49.083040                                                 
C 61.658161 41.425854 30.749754                                                 
C 61.538528 41.256883 36.848041                                                 
C 62.952913 43.654497 30.733345                                                 
H 63.603419 41.280499 36.867736                                                 
C 61.663986 46.042710 30.691481                                                 
C 61.522565 45.934833 36.844806                                                 
C 62.959861 48.332041 30.675913                                                 
H 63.589864 45.934743 36.861350                                                 
H 65.019822 43.666662 30.774535                                                 
C 61.554650 41.243961 42.923400                                                 
C 61.486109 41.024087 49.030851                                                 
C 62.846904 43.473451 42.924518                                                 
H 63.552893 41.037663 48.972448                                                 
C 61.554003 45.860848 42.940253                                                 
C 61.487533 45.709115 49.055239                                                 
C 62.839340 48.157257 42.941147                                                 
H 63.555361 45.702659 48.988410                                                 
H 64.916032 43.487605 42.908821                                                 
C 61.705211 55.324862 30.719055                                                 
C 61.516444 55.291631 36.869172                                                 
C 62.983664 57.719961 30.945331                                                 
H 63.584938 55.291451 36.903721                                                 
H 65.057330 52.989901 30.769268                                                 
C 61.556031 55.137554 42.956606                                                 
C 61.509527 55.058922 49.026640                                                 
C 62.848926 57.524001 42.940110                                                 
H 63.574836 55.065170 48.933194                                                 
H 64.911559 52.839214 42.934611                                                 
C 61.686097 50.683052 30.646179                                                 
C 61.520676 50.612264 36.849799                                                 
C 62.988836 53.004288 30.679715                                                 
H 65.029953 48.317619 30.718759                                                 
C 61.554465 50.499099 42.954676                                                 
C 61.500730 50.388257 49.081647                                                 
C 62.840521 52.838894 42.951237                                                 
H 64.910166 48.154431 42.926121                                                 
H 41.804592 71.124667 30.797360                                                 
H 44.443919 71.011637 36.940027                                                 
H 41.710304 70.905392 42.947634                                                 
H 44.379954 70.827828 49.008824                                                 
C 45.432356 69.339828 30.784843                                                 
C 45.495402 69.231955 36.923662                                                 
H 46.480911 71.121142 30.853665                                                 
C 48.072387 69.233289 36.939356                                                 
C 49.484334 66.995524 30.782488                                                 
C 49.489647 66.918637 36.922006                                                 
H 50.510025 68.791555 30.852362                                                 
C 52.120831 66.882208 36.936618                                                 
H 49.121307 71.016497 36.967551                                                 
C 45.336796 69.120776 42.968853                                                 
C 45.430530 69.048757 49.078197                                                 
H 46.387080 70.900889 42.959845                                                 
C 48.009351 69.054127 49.115523                                                 
C 49.387185 66.773881 42.986498                                                 
C 49.430886 66.741742 49.162708                                                 
H 50.417761 68.566965 42.976019                                                 
C 52.062717 66.712160 49.180307                                                 
H 49.055254 70.838027 49.077053                                                 
H 57.208539 66.334505 36.957190                                                 
H 57.150744 66.178474 49.077183                                                 
H 53.154054 68.676525 36.964801                                                 
H 53.093177 68.507006 49.152086                                                 
C 57.603715 62.359661 30.749616                                                 
C 57.520497 62.281055 36.897739                                                 
H 58.629917 64.152358 30.882331                                                 
C 60.233873 62.208048 36.921539                                                 
C 57.497517 62.094614 42.967824                                                 
C 57.473657 62.117513 49.027882                                                 
H 58.533172 63.885484 42.944079                                                 
C 60.193116 62.029728 48.922267                                                 
C 53.543589 64.674853 30.756823                                                 
C 53.503858 64.598418 36.913340                                                 
C 56.173187 64.541837 36.922585                                                 
C 53.442899 64.437676 42.990440                                                 
C 53.452671 64.430304 49.172265                                                 
C 56.115067 64.387698 49.121811                                                 
C 61.677364 59.988207 30.962724                                                 
C 61.520830 59.973658 36.914958                                                 
H 62.698132 61.759014 31.270592                                                 
H 63.587922 59.952695 36.956573                                                 
H 65.031783 57.714930 31.237127                                                 
H 61.253553 64.008321 36.965923                                                 
C 61.557099 59.756447 42.936034                                                 
C 61.499139 59.767110 48.885899                                                 
H 62.573774 61.556494 42.904806                                                 
H 63.561262 59.762297 48.763582                                                 
H 64.918541 57.508201 42.912080                                                 
H 61.220480 63.821154 48.831281                                                 
H 63.567517 50.385605 49.010582                                                 
H 36.301875 34.682700 48.942581                                                 
H 36.297882 66.147929 48.998006                                                 
H 27.252872 50.502515 43.091494                                                 
H 54.474067 66.230424 42.975822                                                 
H 63.588188 50.611203 36.870543                                                 
H 54.476526 34.781844 42.920271                                                 
H 36.415667 34.899943 37.618992                                                 
H 36.363760 66.345916 36.887993                                                 
H 54.564115 66.473205 30.838651                                                 
H 27.294014 50.778694 30.083854                                                 
H 54.592539 34.973391 30.796383                                                 
Li 31.707540 41.304587 27.137924                                                
Li 30.329588 48.388605 33.823597                                                
Li 58.911704 59.756709 52.343985                                                
Li 35.717941 37.563991 33.716321                                                
Li 60.553632 57.832725 27.436309                                                
Li 41.743320 34.744440 33.744600                                                
%ENDBLOCK POSITIONS_ABS                                                         

--------------------------------------------------------------------------------
-------------------------------- END INPUT FILE --------------------------------
--------------------------------------------------------------------------------


 
<<<<<<<<<<<<<<<<<<<<<<<<<<<<<<<<< Full system >>>>>>>>>>>>>>>>>>>>>>>>>>>>>>>>>>
<<<<<<<<<<<<<<<<<<<<<<<<<<< PAW Dataset information >>>>>>>>>>>>>>>>>>>>>>>>>>>
File: ~/pp/paw/c_pbe_abinit.paw; rc = 1.25 bohr; shape type =  3; rshape = 1.25 bohr;
  Atomic number:  6;  ionic charge:  4.000000
    Partial Wave 1: l = 0
    Partial Wave 2: l = 0
    Partial Wave 3: l = 1
    Partial Wave 4: l = 1
  Core charge supplied for Nonlinear Core Corrections
File: ~/pp/paw/h_pbe_abinit.paw; rc = 0.90 bohr; shape type =  3; rshape = 0.90 bohr;
  Atomic number:  1;  ionic charge:  1.000000
    Partial Wave 1: l = 0
    Partial Wave 2: l = 0
File: ~/pp/paw/li_pbe_abinit.paw; rc = 1.42 bohr; shape type =  3; rshape = 1.42 bohr;
  Atomic number:  3;  ionic charge:  3.000000
    Partial Wave 1: l = 0
    Partial Wave 2: l = 0
    Partial Wave 3: l = 0
    Partial Wave 4: l = 1
    Partial Wave 5: l = 1
<<<<<<<<<<<<<<<<<<<<<<<<<<<<<<<<<<<<<<< >>>>>>>>>>>>>>>>>>>>>>>>>>>>>>>>>>>>>>>

-------------------------- Atom counting information ---------------------------
Symbol    Natoms    Nngwfs    Nprojs
  C        484      1936      3872
  H        108       108       216
  Li         6        30        54
.......   ......    ......    ......
Totals:    598      2074      4142
--------------------------------------------------------------------------------

=============================== PSINC grid sizes ===============================
                      Simulation cell:  189 x 189 x 189
                              FFT-box:  117 x 117 x 117
                                  PPD:    7 x   7 x   1
Grid space d1=  0.499927596032a0 (KE cutoff=  30.39413Eh = 827.06648eV)
Grid space d2=  0.499927596032a0 (KE cutoff=  30.39413Eh = 827.06648eV)
Grid space d3=  0.499927596032a0 (KE cutoff=  30.39413Eh = 827.06648eV)
================================================================================
  
WARNING in cell_grid_distribute:
Average of less than one 23-slab per node, so workload cannot be
equally balanced between nodes.

********************* Fourier parallelisation information **********************
       Coarse grid (whole simulation cell) dimensions:    189   189   189
          Real-space ('12') slabs/node (min max mean):      1     2     1
         Recip-space ('23') slabs/node (min max mean):      0     1     0
********************************************************************************

********************* Fourier parallelisation information **********************
       Double grid (whole simulation cell) dimensions:    378   378   378
          Real-space ('12') slabs/node (min max mean):      2     3     2
         Recip-space ('23') slabs/node (min max mean):      1     2     1
********************************************************************************

Atom SCF Calculation for C  : Z (AE atom) =   6 : Z (PS atom) =   4
Config String: 2s2 2p2
Orbitals (num,occ):  2     2.00 2.00
Orbitals   (num,l):  2        0    1
Real-space Grid (nr,dr,rmax): 1377    0.0065406977    9.0000000000
Spherical Bessel Basis (nsws,lmax,cutoff):   37    2  183.0099912382
Confining potential (l,width,scale):  0    3.0000000000  100.0000000000
Confining potential (l,width,scale):  1    3.0000000000  100.0000000000
  1         -5.4350126632   -1.2715272878    4.5135247139   -1.5681949477
  2         -5.3876836850   -1.3562195125    4.4235426751   -1.5380057521
  3         -5.3928844498   -1.3758175853    4.4021699684   -1.5318377811
  4         -5.3988962903   -1.3800385428    4.3975423583   -1.5307324410
  5         -5.4018428823   -1.3823489590    4.3950111904   -1.5301555648
  6         -5.4033571720   -1.3835805046    4.3936635548   -1.5298576834
  7         -5.4041480647   -1.3842324820    4.3929512000   -1.5297032953
  8         -5.4045641108   -1.3845769138    4.3925755232   -1.5296229456
  9         -5.4047838258   -1.3847587737    4.3923775340   -1.5295810042
 10         -5.4049001347   -1.3848548089    4.3922731819   -1.5295590658
 11         -5.4049618018   -1.3849055476    4.3922181562   -1.5295475724
 12         -5.4049945351   -1.3849323732    4.3921891206   -1.5295415432
 13         -5.4050119258   -1.3849465673    4.3921737867   -1.5295383767
 14         -5.4050211723   -1.3849540841    4.3921656816   -1.5295367119
 15         -5.4050260920   -1.3849580684    4.3921613935   -1.5295358358
 16         -5.4050287113   -1.3849601822    4.3921591228   -1.5295353742
 17         -5.4050301068   -1.3849613045    4.3921579192   -1.5295351307
 18         -5.4050308507   -1.3849619010    4.3921572806   -1.5295350022
 19         -5.4050312476   -1.3849622183    4.3921569415   -1.5295349343
 20         -5.4050314594   -1.3849623873    4.3921567612   -1.5295348984
 21         -5.4050315725   -1.3849624773    4.3921566653   -1.5295348794
 22         -5.4050316330   -1.3849625253    4.3921566143   -1.5295348693
Atom SCF converged after  22 iterations to a total energy of     -5.40503163

Atom SCF Calculation for H  : Z (AE atom) =   1 : Z (PS atom) =   1
Config String: 1s1
Orbitals (num,occ):  1     1.00
Orbitals   (num,l):  1        0
Real-space Grid (nr,dr,rmax): 1377    0.0065406977    9.0000000000
Spherical Bessel Basis (nsws,lmax,cutoff):   37    1  183.0099912382
Confining potential (l,width,scale):  0    3.0000000000  100.0000000000
  1         -0.3605254152   -0.2399954029    0.2820952946   -0.2424203210
  2         -0.4156854077   -0.2398249290    0.2871789324   -0.2464796203
  3         -0.4412552402   -0.2379720642    0.2899127187   -0.2499011370
  4         -0.4517265951   -0.2371980236    0.2908966173   -0.2514141636
  5         -0.4557775773   -0.2369735141    0.2911607883   -0.2519713623
  6         -0.4573363459   -0.2369240355    0.2912108681   -0.2521663171
  7         -0.4579443228   -0.2369187864    0.2912112833   -0.2522344454
  8         -0.4581858602   -0.2369215483    0.2912049187   -0.2522587615
  9         -0.4582834939   -0.2369242589    0.2912002081   -0.2522677042
 10         -0.4583235236   -0.2369258837    0.2911975892   -0.2522710965
 11         -0.4583401154   -0.2369267223    0.2911962825   -0.2522724192
 12         -0.4583470483   -0.2369271266    0.2911956643   -0.2522729467
 13         -0.4583499624   -0.2369273145    0.2911953803   -0.2522731607
 14         -0.4583511926   -0.2369274000    0.2911952521   -0.2522732486
 15         -0.4583517136   -0.2369274385    0.2911951948   -0.2522732850
 16         -0.4583519349   -0.2369274556    0.2911951693   -0.2522733002
 17         -0.4583520290   -0.2369274632    0.2911951581   -0.2522733066
Atom SCF converged after  17 iterations to a total energy of     -0.45835203

Atom SCF Calculation for Li : Z (AE atom) =   3 : Z (PS atom) =   3
Config String: 1s2 2s1 2p0
Orbitals (num,occ):  3     2.00 1.00 0.00
Orbitals   (num,l):  3        0    0    1
Real-space Grid (nr,dr,rmax): 1377    0.0065406977    9.0000000000
Spherical Bessel Basis (nsws,lmax,cutoff):   37    2  183.0099912382
Confining potential (l,width,scale):  0    3.0000000000  100.0000000000
Confining potential (l,width,scale):  1    3.0000000000  100.0000000000
  1         -6.0640888065   -4.6655401716    2.5388576516   -0.9989538799
  2         -6.9627542978   -4.0954079129    2.9808988108   -1.1965571426
  3         -7.2692687601   -3.8889996707    3.2029735703   -1.3193883705
  4         -7.3784440298   -3.8322099748    3.2868571989   -1.3711018151
  5         -7.4170278248   -3.8191968371    3.3144974220   -1.3911175539
  6         -7.4303549880   -3.8172386945    3.3228486489   -1.3986896266
  7         -7.4348052089   -3.8175483495    3.3251259310   -1.4015352495
  8         -7.4362242328   -3.8180607346    3.3256233205   -1.4026016384
  9         -7.4366459715   -3.8184145665    3.3256561549   -1.4029998726
 10         -7.4367560626   -3.8186169740    3.3256001574   -1.4031477379
 11         -7.4367765260   -3.8187239825    3.3255481763   -1.4032021548
 12         -7.4367751741   -3.8187782620    3.3255144587   -1.4032219192
 13         -7.4367707398   -3.8188051288    3.3254952336   -1.4032289600
 14         -7.4367680349   -3.8188156035    3.3254870176   -1.4032309087
 15         -7.4367661982   -3.8188217406    3.3254819951   -1.4032318132
 16         -7.4367650112   -3.8188253257    3.3254789583   -1.4032322224
 17         -7.4367642682   -3.8188274151    3.3254771375   -1.4032324006
 18         -7.4367638134   -3.8188286307    3.3254760529   -1.4032324736
 19         -7.4367635392   -3.8188293370    3.3254754103   -1.4032325004
 20         -7.4367633760   -3.8188297469    3.3254750310   -1.4032325080
 21         -7.4367632796   -3.8188299846    3.3254748079   -1.4032325082
Atom SCF converged after  21 iterations to a total energy of     -7.43676328

Determining parallel strategy ...
... using space-filling curve
... NGWF load balancing: max     17;  min     13;  average     15
... Projector load balancing: max     34;  min     26;  average     30
... done
Calculating Ewald energy ...
              Ewald: real-space energy =   35835.848884
        Ewald: reciprocal-space energy =   33948.897979
         Ewald: (sum_charge)**2 Energy =    2670.615407
         Ewald: (sum_charge**2) Energy =     242.868632
                          Ewald Energy =   66871.262824
======================= Empirical dispersion information =======================
Model : Grimme D2
Dispersion Correction Energy: -0.18447694E+01 Hartree
================================================================================
Basis initialisation ...... NGWF spheres initialised
... Projector spheres initialised
... NGWF tight boxes initialised
... Projector tight boxes initialised
... Tight-boxes gathered
... NGWF basis size (local,global):     268838  38232974
... PAW projector initialisation
... done

============================= Charge Augmentation ==============================
                           Aug box size:   13 x  13 x  13
================================================================================

========================== Sparse matrix information ===========================
                        Overlap matrix filling:  39.21%
                        Density kernel filling: 100.00%
              NGWF-Proj overlap matrix filling:  11.21%
                    Aug Overlap matrix filling:  43.47%
                    Hamiltonian matrix filling:  43.47%
                  NGWF diagonal matrix filling:   0.19%
                             KS matrix filling: 100.00% 
                           KSKS matrix filling: 100.00% 
================================================================================

Sparse matrix initialisation ... done
NGWF initialisation ...... done
============ Calculation of NGWF S^-1 using Hotelling algorithm ================ 
         Iteration  |  Frobenius norm and Maximum abs value    (of I-S*S_n^-1)   
               1       0.45190344E+02     0.99586882E+00
               2       0.44857765E+02     0.99176526E+00
               3       0.44242223E+02     0.98363835E+00
               4       0.43178690E+02     0.96768840E+00
               5       0.41537189E+02     0.93689217E+00
               6       0.39344186E+02     0.87908126E+00
               7       0.36713800E+02     0.78730709E+00
               8       0.33719998E+02     0.77109991E+00
               9       0.30632631E+02     0.75102529E+00
              10       0.27701656E+02     0.73111823E+00
              11       0.24566170E+02     0.71934598E+00
              12       0.20554489E+02     0.70117160E+00
              13       0.15256820E+02     0.66877559E+00
              14       0.91063622E+01     0.61216611E+00
              15       0.37905203E+01     0.51826853E+00
              16       0.97986594E+00     0.37612716E+00
              17       0.29750453E+00     0.19991767E+00
              18       0.80552158E-01     0.56680763E-01
              19       0.64707037E-02     0.45593124E-02
              20       0.41869849E-04     0.29501896E-04
              21       0.17530807E-08     0.12352386E-08
              22       0.38495817E-13     0.26645353E-14
================================================================================
Calculating core density ...
================================= Core Density =================================
               Core den box size:   21 x  21 x  21
================================================================================
 ... done
Up spin density kernel initialisation ...... done

Writing density kernel to file "6/592nano.dkn" ... done

>>> Optimising kernel for current NGWFs:

--------------------------- Ensemble-DFT optimisation --------------------------
Running ScaLAPACK on  140 processor(s).

--------------------------------------------------------------------------------
  Iter                              Commutator    Free_energy(A=E-TS)     DeltaA
#    0                          0.000797744827   -2859.68014023857359  -2.86E+03

Step                       =       0.381966011250
Energy                     =   -2859.658890455111
Entropy (-TS)              =      -0.021249783146
Free energy (A=E-TS)       =   -2859.680140238574
Est. 0K Energy 0.5*(E+A)   =   -2859.669515346842
Residual Non-orthogonality =       0.000000000000
Residual N_electrons       =      -0.000000000316

Spin          Integrated_Ne            Fermi_level     Delta_Fermi_level
   1      2061.999999998758        -0.254291562871             -2.54E-01

                           Spin 1          
     Orb      H-eigenvalues     Occupancies
       1 |    -1.9075007749    1.0000000000 | 
                          ------
    1027 |    -0.2902120441    0.9999881455 | 
    1028 |    -0.2801870452    0.9997190764 | 
    1029 |    -0.2695460979    0.9919739263 | 
    1030 |    -0.2572446778    0.7175862523 | 
    1031 |    -0.2550887297    0.5626011330 | 
                 - Gap at zero temperature -
    1032 |    -0.2521178760    0.3348352664 | 
    1033 |    -0.2494574933    0.1785095054 | 
    1034 |    -0.2461052588    0.0701080692 | 
    1035 |    -0.2451921047    0.0534851941 | 
    1036 |    -0.2434179460    0.0312612161 | 
                          ------
    2074 |     0.5667500523    0.0000000000 | 

                       |  Abs_value |  Threshold | Converged
     Delta_Free_energy |   2.86E+03 |   1.00E-06 |        No
     Delta_Energy      |   2.86E+03 |   1.00E-04 |        No
     Delta_Entropy     |   2.12E-02 |   1.00E-04 |        No
     Commutator        |   7.98E-04 |   1.00E-05 |        No
     Delta_Fermi_level |   2.54E-01 |   1.00E-03 |        No

  Line search of the free energy minimum:
  Step_type        Step             Free_energy   Predicted_free_energy
.   Initial    0.000000    -2859.68014023857359
.    Trial1    0.381966    -2859.52931749668323
.    Trial2    0.145898    -2860.03837411579798
. Quadratic    0.174631    -2860.05736233675407    -2860.04834206746500

--------------------------------------------------------------------------------
  Iter                              Commutator    Free_energy(A=E-TS)     DeltaA
#    1                          0.000513693804   -2860.05736233675407  -3.77E-01

Step                       =       0.174631068839
Energy                     =   -2860.041593021825
Entropy (-TS)              =      -0.015769315165
Free energy (A=E-TS)       =   -2860.057362336754
Est. 0K Energy 0.5*(E+A)   =   -2860.049477679289
Residual Non-orthogonality =       0.000000000000
Residual N_electrons       =       0.000000000236

Spin          Integrated_Ne            Fermi_level     Delta_Fermi_level
   1      2062.000000000989        -0.238872680153              1.54E-02

                           Spin 1          
     Orb      H-eigenvalues     Occupancies
       1 |    -1.9258121276    1.0000000000 | 
                          ------
    1027 |    -0.2701455225    0.9999485672 | 
    1028 |    -0.2628173485    0.9994799828 | 
    1029 |    -0.2541907255    0.9921320320 | 
    1030 |    -0.2501924994    0.9727352248 | 
    1031 |    -0.2392220527    0.5275528420 | 
                 - Gap at zero temperature -
    1032 |    -0.2350416143    0.2297444124 | 
    1033 |    -0.2323277991    0.1123747806 | 
    1034 |    -0.2306559151    0.0694835777 | 
    1035 |    -0.2288993250    0.0411174262 | 
    1036 |    -0.2266650879    0.0207375642 | 
                          ------
    2074 |     0.5862464170    0.0000000000 | 

                       |  Abs_value |  Threshold | Converged
     Delta_Free_energy |   3.77E-01 |   1.00E-06 |        No
     Delta_Energy      |   3.83E-01 |   1.00E-04 |        No
     Delta_Entropy     |   5.48E-03 |   1.00E-04 |        No
     Commutator        |   5.14E-04 |   1.00E-05 |        No
     Delta_Fermi_level |   1.54E-02 |   1.00E-03 |        No

  Line search of the free energy minimum:
  Step_type        Step             Free_energy   Predicted_free_energy
.   Initial    0.000000    -2860.05736233675407
.    Trial1    0.174631    -2860.16777841725388
.    Trial2    0.489894    -2859.31273534891943
. Quadratic    0.133624    -2860.17506181140288    -2860.17925840119369

--------------------------------------------------------------------------------
  Iter                              Commutator    Free_energy(A=E-TS)     DeltaA
#    2                          0.000369454509   -2860.17506181140288  -1.18E-01

Step                       =       0.133623888807
Energy                     =   -2860.155749847021
Entropy (-TS)              =      -0.019311963991
Free energy (A=E-TS)       =   -2860.175061811403
Est. 0K Energy 0.5*(E+A)   =   -2860.165405829212
Residual Non-orthogonality =       0.000000000000
Residual N_electrons       =      -0.000000000391

Spin          Integrated_Ne            Fermi_level     Delta_Fermi_level
   1      2061.999999998297        -0.229753919379              9.12E-03

                           Spin 1          
     Orb      H-eigenvalues     Occupancies
       1 |    -1.9257812078    1.0000000000 | 
                          ------
    1027 |    -0.2623789279    0.9999664407 | 
    1028 |    -0.2542374010    0.9995613072 | 
    1029 |    -0.2444717521    0.9905057018 | 
    1030 |    -0.2363179017    0.8882254577 | 
    1031 |    -0.2294909940    0.4792555951 | 
                 - Gap at zero temperature -
    1032 |    -0.2259807362    0.2329948682 | 
    1033 |    -0.2245768101    0.1631736135 | 
    1034 |    -0.2227499790    0.0987074439 | 
    1035 |    -0.2220813334    0.0814496912 | 
    1036 |    -0.2179102095    0.0232041178 | 
                          ------
    2074 |     0.5956144156    0.0000000000 | 

                       |  Abs_value |  Threshold | Converged
     Delta_Free_energy |   1.18E-01 |   1.00E-06 |        No
     Delta_Energy      |   1.14E-01 |   1.00E-04 |        No
     Delta_Entropy     |   3.54E-03 |   1.00E-04 |        No
     Commutator        |   3.69E-04 |   1.00E-05 |        No
     Delta_Fermi_level |   9.12E-03 |   1.00E-03 |        No

  Line search of the free energy minimum:
  Step_type        Step             Free_energy   Predicted_free_energy
.   Initial    0.000000    -2860.17506181140288
.    Trial1    0.133624    -2860.22859158225083
.    Trial2    0.464550    -2860.01434975168922
. Quadratic    0.155600    -2860.22883561092021    -2860.22968104368556

--------------------------------------------------------------------------------
  Iter                              Commutator    Free_energy(A=E-TS)     DeltaA
#    3                          0.000277683125   -2860.22883561092021  -5.38E-02

Step                       =       0.155599521767
Energy                     =   -2860.211282649690
Entropy (-TS)              =      -0.017552961149
Free energy (A=E-TS)       =   -2860.228835610920
Est. 0K Energy 0.5*(E+A)   =   -2860.220059130305
Residual Non-orthogonality =       0.000000000000
Residual N_electrons       =      -0.000000000081

Spin          Integrated_Ne            Fermi_level     Delta_Fermi_level
   1      2061.999999999634        -0.222841557291              6.91E-03

                           Spin 1          
[...]
 C   218 -- C   280       -0.10      5.37892
 C   424 -- C   436       -0.10      5.37899
 C   272 -- C   294       -0.10      5.37909
 C   105 -- C   477       -0.10      5.37921
 C    48 -- C    62       -0.10      5.37928
 C   264 -- C   298       -0.10      5.37930
 C   210 -- C   280       -0.10      5.37937
 C   266 -- C   296       -0.10      5.37942
 C    83 -- C    85       -0.10      5.37944
 C    38 -- C    56       -0.10      5.37954
 C   447 -- C   457       -0.10      5.37961
 C    34 -- C    52       -0.10      5.37962
 C   360 -- C   386       -0.10      5.37975
 C   420 -- C   444       -0.10      5.37983
 C    72 -- C   102       -0.09      5.37984
 C   210 -- C   296       -0.10      5.37992
 C   358 -- C   388       -0.10      5.37993
 C   119 -- C   125       -0.10      5.37995
 C   226 -- C   304       -0.10      5.37996
 C   216 -- C   234       -0.10      5.38010
 C   268 -- C   286       -0.10      5.38011
 C    24 -- C    30       -0.10      5.38018
 C   244 -- C   278       -0.10      5.38023
 C    44 -- C   122       -0.10      5.38025
 C   446 -- C   460       -0.10      5.38026
 C   350 -- C   380       -0.10      5.38027
 C   243 -- C   269       -0.10      5.38032
 C   198 -- C   224       -0.10      5.38032
 C   101 -- C   127       -0.10      5.38038
 C    35 -- C   497       -0.10      5.38041
 C    28 -- C   114       -0.10      5.38044
 C   457 -- C   475       -0.10      5.38058
 C   264 -- C   424       -0.10      5.38066
 C    15 -- C    41       -0.10      5.38072
 C    24 -- C    38       -0.10      5.38075
 C   257 -- C   439       -0.10      5.38088
 C   226 -- C   382       -0.10      5.38092
 C    64 -- C   366       -0.10      5.38095
 C   316 -- C   374       -0.10      5.38112
 C    96 -- C   126       -0.10      5.38114
 C   409 -- C   485       -0.10      5.38190
 C   433 -- C   439       -0.10      5.38191
 C    88 -- C   547       -0.10      5.38223
 C   105 -- C   449       -0.10      5.38251
 C    33 -- C    43       -0.10      5.38257
 C    11 -- C   431       -0.10      5.38257
 C    32 -- C   102       -0.10      5.38266
 C   192 -- C   290       -0.09      5.38269
 C   107 -- C   475       -0.10      5.38312
 C   107 -- C   109       -0.10      5.38313
 C   227 -- C   237       -0.09      5.38340
 C   255 -- C   269       -0.10      5.38342
 C    88 -- C   118       -0.10      5.38359
 C   213 -- C   313       -0.10      5.38363
 C   190 -- C   300       -0.10      5.38364
 C   268 -- C   302       -0.10      5.38365
 C   440 -- C   488       -0.10      5.38373
 C   409 -- C   455       -0.10      5.38377
 C    33 -- C   363       -0.10      5.38392
 C     9 -- C    15       -0.10      5.38399
 C   316 -- C   390       -0.10      5.38401
 C   245 -- C   267       -0.10      5.38406
 C   213 -- C   345       -0.10      5.38415
 C   269 -- C   431       -0.10      5.38421
 C   339 -- C   361       -0.09      5.38433
 C   214 -- C   276       -0.10      5.38443
 C   238 -- C   314       -0.09      5.38449
 C   111 -- C   121       -0.10      5.38473
 C    57 -- C   379       -0.10      5.38480
 C    34 -- C   100       -0.10      5.38485
 C    51 -- C    57       -0.10      5.38486
 C   193 -- C   267       -0.10      5.38489
 C    35 -- C   511       -0.09      5.38507
 C   315 -- C   349       -0.10      5.38509
 C   373 -- C   379       -0.10      5.38513
 C    46 -- C    64       -0.10      5.38526
 C   431 -- C   441       -0.10      5.38530
 C    11 -- C    77       -0.10      5.38540
 C   416 -- C   476       -0.10      5.38587
 C   349 -- C   363       -0.10      5.38589
 C   229 -- C   373       -0.09      5.38601
 C    41 -- C   351       -0.10      5.38601
 C   364 -- C   390       -0.10      5.38621
 C     1 -- C     7       -0.10      5.38630
 C    32 -- C   118       -0.10      5.38655
 C   287 -- C   301       -0.10      5.38661
 C   385 -- C   395       -0.10      5.38687
 C    13 -- C    43       -0.10      5.38695
 C    76 -- C   564       -0.10      5.38734
 C   243 -- C   347       -0.10      5.38734
 C   105 -- C   111       -0.10      5.38771
 C   333 -- C   365       -0.10      5.38774
 C     3 -- C   447       -0.10      5.38790
 C    67 -- C    89       -0.09      5.38802
 C   205 -- C   263       -0.10      5.38808
 C     5 -- C    59       -0.10      5.38817
 C    86 -- C   120       -0.10      5.38820
 C    36 -- C    98       -0.10      5.38820
 C   423 -- C   489       -0.10      5.38824
 C    13 -- C   347       -0.10      5.38828
 C   187 -- C   193       -0.08      5.38860
 C   275 -- C   375       -0.10      5.38869
 C   481 -- C   489       -0.10      5.38870
 C   444 -- C   492       -0.10      5.38872
 C    85 -- C    95       -0.10      5.38879
 C     5 -- C   375       -0.09      5.38883
 C     7 -- C   121       -0.10      5.38885
 C   233 -- C   239       -0.10      5.38896
 C   293 -- C   295       -0.10      5.38899
 C    55 -- C   525       -0.10      5.38906
 C   275 -- C   301       -0.10      5.38918
 C     3 -- C   109       -0.10      5.38926
 C    43 -- C    65       -0.10      5.38929
 C   224 -- C   242       -0.10      5.38935
 C   194 -- C   288       -0.09      5.38953
 C    48 -- C   126       -0.10      5.38953
 C   408 -- C   416       -0.10      5.38973
 C    38 -- C   104       -0.10      5.38976
 C   201 -- C   239       -0.10      5.38991
 C    87 -- C    93       -0.10      5.38993
 C   345 -- C   351       -0.09      5.38995
 C   222 -- C   300       -0.10      5.38999
 C   202 -- C   216       -0.10      5.39030
 C   213 -- C   219       -0.10      5.39031
 C   430 -- C   480       -0.10      5.39043
 C   368 -- C   394       -0.10      5.39070
 C   477 -- C   485       -0.10      5.39072
 C    92 -- C   564       -0.10      5.39073
 C   285 -- C   407       -0.10      5.39075
 C    99 -- C   121       -0.10      5.39077
 C     1 -- C   277       -0.10      5.39081
 C   330 -- C   394       -0.10      5.39090
 C    35 -- C    41       -0.10      5.39098
 C    15 -- C    89       -0.10      5.39115
 C   301 -- C   447       -0.10      5.39160
 C   211 -- C   315       -0.09      5.39165
 C   377 -- C   391       -0.09      5.39212
 C   262 -- C   292       -0.10      5.39212
 C    84 -- C   567       -0.10      5.39222
 C   103 -- C   525       -0.10      5.39222
 C   206 -- C   292       -0.10      5.39277
 C   289 -- C   455       -0.10      5.39289
 C    79 -- C    89       -0.09      5.39294
 C   211 -- C   221       -0.10      5.39305
 C   257 -- C   267       -0.10      5.39324
 C   182 -- C   220       -0.09      5.39355
 C     9 -- C   245       -0.09      5.39367
 C    36 -- C    50       -0.09      5.39370
 C   256 -- C   290       -0.09      5.39381
 C    74 -- C   488       -0.09      5.39412
 C   319 -- C   361       -0.09      5.39473
 C   277 -- C   299       -0.09      5.39500
 C   191 -- C   221       -0.09      5.39581
 C   313 -- C   319       -0.10      5.39627
 C   327 -- C   333       -0.09      5.39636
 C   293 -- C   421       -0.09      5.39665
 C   254 -- C   284       -0.09      5.39678
 C    53 -- C   395       -0.09      5.39680
 C    40 -- C    54       -0.09      5.39784
 C   186 -- C   192       -0.09      5.39807
 C    81 -- C    87       -0.09      5.39807
 C    40 -- C   102       -0.09      5.39809
 C   205 -- C   207       -0.09      5.39817
 C    77 -- C    91       -0.09      5.39824
 C    51 -- C   521       -0.09      5.39857
 C   422 -- C   430       -0.09      5.39867
 C   289 -- C   299       -0.10      5.39889
 C    73 -- C    79       -0.09      5.39904
 C    66 -- C   100       -0.09      5.39961
 C   242 -- C   328       -0.09      5.39967
 C   202 -- C   208       -0.09      5.40010
 C    82 -- C   492       -0.09      5.40010
 C    69 -- C    95       -0.09      5.40211
 C    49 -- C   391       -0.09      5.40322
 C   221 -- C   243       -0.09      5.40337
 C   185 -- C   299       -0.09      5.40343
 C   186 -- C   212       -0.09      5.40502
 C   237 -- C   275       -0.10      5.40607
 C   188 -- C   286       -0.08      5.40783
 H   133 -- Li  598       -0.03      5.40915
 C    97 -- C   123       -0.09      5.41034
 C    96 -- C   567       -0.09      5.41286
 C   181 -- C   287       -0.08      5.41295
 C   253 -- C   413       -0.09      5.41311
 C    99 -- C   521       -0.09      5.41319
 C    94 -- C   128       -0.09      5.41355
 C   285 -- C   287       -0.09      5.41478
 C   230 -- C   318       -0.09      5.41484
 C    52 -- C   338       -0.09      5.41592
 C   339 -- C   497       -0.09      5.41642
 C   252 -- C   406       -0.09      5.41659
 C   143 -- C   219       -0.07      5.41688
 C   466 -- C   538       -0.09      5.41783
 C   227 -- C   309       -0.09      5.41791
 C   193 -- C   219       -0.09      5.41878
 C   229 -- C   235       -0.08      5.41926
 C   231 -- C   323       -0.09      5.41953
 C   220 -- C   238       -0.09      5.41960
 C   261 -- C   427       -0.09      5.42026
 C    83 -- C   467       -0.09      5.42033
 C   343 -- C   506       -0.09      5.42053
 C   470 -- C   547       -0.09      5.42076
 C    75 -- C   463       -0.09      5.42130
 C   197 -- C   199       -0.09      5.42145
 C    56 -- C   342       -0.09      5.42215
 C   234 -- C   332       -0.09      5.42308
 C   182 -- C   188       -0.09      5.42316
 C   260 -- C   420       -0.09      5.42326
 C   198 -- C   204       -0.09      5.42454
 C    68 -- C   556       -0.09      5.42494
 C    65 -- C    91       -0.09      5.42525
 C    70 -- C   104       -0.09      5.42536
 C   189 -- C   255       -0.08      5.42638
 C    71 -- C   516       -0.09      5.42671
 C   183 -- C   237       -0.08      5.43270
 C   190 -- C   284       -0.08      5.43540
 C   189 -- C   191       -0.08      5.45524
 C   185 -- C   235       -0.07      5.46621
 C   307 -- Li  598       -0.06      5.48241
 C    72 -- C   560       -0.07      5.49213
 C    67 -- C   511       -0.07      5.50073
 C   181 -- C   183       -0.08      5.50481
 C   308 -- Li  598       -0.07      5.58267
 C   238 -- Li  596       -0.03      5.59991
 C   150 -- Li  596       -0.06      5.62068
 C   236 -- C   239       -0.04      5.63589
 H   149 -- Li  598       -0.02      5.65934
==================================================


=================== Orbital energy and occupancy information ===================

      Total number of orbitals:    2074
        Occupancy sum (kernel):    1030.999999999
   Occupancy sum (eigenvalues):    1030.999999999
                 HOMO-LUMO gap:       0.004236557 Eh
                 Mid-gap level:      -0.093418581 Eh

                        Orbital | Energy (Eh) | Occupancy
                            1    -1.907321792   1.0000000
                        .......   ...........   .........
                         1022    -0.137912327   0.9999983
                         1023    -0.137619251   0.9999981
                         1024    -0.134949306   0.9999959
                         1025    -0.131014157   0.9999864
                         1026    -0.125311997   0.9999217
                         1027    -0.125038764   0.9999143
                         1028    -0.121212029   0.9997149
                         1029    -0.108832223   0.9861106
                         1030    -0.102661659   0.9108478
                         1031    -0.095536859   0.5155908
                        ....... -- gap at 0K -- .........
                         1032    -0.091300302   0.2156306
                         1033    -0.090296782   0.1674775
                         1034    -0.087439480   0.0755117
                         1035    -0.086507524   0.0573827
                         1036    -0.084306554   0.0295641
                         1037    -0.082255688   0.0155802
                         1038    -0.080805717   0.0099682
                         1039    -0.080521677   0.0091088
                         1040    -0.078395996   0.0046712
                         1041    -0.073875078   0.0011167
                        .......   ...........   .........
                         2074     0.787498978   0.0000000

================================================================================

===================== Writing canonical molecular orbitals =====================
| Orbital  Energy (eV)  Norm     |
| HOMO     -2.59969021  1.000000 | Writing "6/592nano_HOMO.cube" ... done
Writing "6/592nano_HOMO.dx" ... done
| LUMO     -2.48440764  1.000000 | Writing "6/592nano_LUMO.cube" ... done
Writing "6/592nano_LUMO.dx" ... done
================================================================================
 
===================== Density of States (DOS) calculation ======================
Writing "6/592nano_DOS.txt" ...  done
================================================================================
 
Writing bands to file "6/592nano.val_bands" ... done
 
================ Projected Density of States (pDOS) calculation ================
 
Constructing AM resolved functions  ...... done
Writing NGWF plot files in formats: CUBE DX ...  done
 
Performing overlap integrals ...  done
 
Computing pDOS weights ...  done
 
All bands spilling parameter =   3.24 %
Occupancy-weighted spilling parameter =   0.98 %
 
 => Outputting data for OptaDOS <=
 
Writing pDOS weights to file "6/592nano.val_pdos_bin" ... done
 
Writing band gradients to file "6/592nano.val_dome_bin" ... done
 
Writing Castep output cell file to "6/592nano-out.cell" ... done
 
 => Computing Gaussian smeared pDOS <= 
Writing "6/592nano_PDOS.txt" ...  done
 
 => Computing Occupancy-weighted Gaussian smeared pDOS <= 
Writing "6/592nano_occ_PDOS.txt" ...  done
  => Band centres: 
 S band centre of group 1:  -14.536212 eV
 P band centre of group 1:   -7.667081 eV
  Band centres done. <=
  => Integrated number of electrons in each AM band: 
 S num electrons of group 1:  542.372458
 P num electrons of group 1: 1499.500791
  Integrated number of electrons done. <=
================================================================================

------------------------------ TIMING INFORMATION ------------------------------
AVERAGE TIME:    7566.362s on    140 node(s)                                    
TOTAL TIME:      7566.364s on    140 node(s)                                    
================= AVERAGE TIMINGS FROM ALL NODES (CUMULATIVE) ==================
|| TAG                                    #calls    cpu time   %total  Gflops ||
|| work_imbalance                       :     1        0.00s   0.000%  ------ ||
|| sparse_set_to_garbage                :   147        0.01s   0.000%  ------ ||
|| paw_sphere_density_on_grid           :     1        0.01s   0.000%  ------ ||
|| paw_tcore_density                    :     1        0.01s   0.000%  ------ ||
|| basis_extract_function_from_box      :   385        0.02s   0.000%  ------ ||
|| paw_dij_hartree                      :   727        0.02s   0.000%  ------ ||
|| ngwfs_initialise_from_radial         :     2        0.04s   0.001%  ------ ||
|| ewald_calculate_energy               :     1        0.17s   0.002%  ------ ||
|| density_init_guess_real              :     1        0.17s   0.002%  ------ ||
|| paw_tcore_hartree_on_grid            :     1        0.36s   0.005%  ------ ||
|| paw_dataset_init                     :     3        0.36s   0.005%  ------ ||
|| pseudo_make_structure_factor         :     1        0.54s   0.007%  ------ ||
|| restart_kernel_write                 :    14        0.82s   0.011%  ------ ||
|| sparse_init                          :     1        1.07s   0.014%  ------ ||
|| dense_normal_eigensolve              :     1        1.26s   0.017%  ------ ||
|| paw_species_calc_proj_prec_mat       :     1        1.89s   0.025%  ------ ||
|| sparse_embed_hotelling_invert_embed  :    25        5.78s   0.076%  ------ ||
|| ngwf_gradient_coeffs                 :    13        5.97s   0.079%  ------ ||
|| fourier_apply_box_pair               :   573        6.69s   0.088%  1.982k ||
|| sw_init                              :     1        7.53s   0.100%  ------ ||
|| augmentation_screen_dij              :   545       11.09s   0.147%  ------ ||
|| basis_copy_function_to_box           : 11288       12.09s   0.160%  ------ ||
|| paw_dij_xc                           :   727       18.60s   0.246%  ------ ||
|| projectors_init_fftbox_recip         :    79       24.88s   0.329%  ------ ||
|| hartree_on_grid                      :   540       27.99s   0.370%  ------ ||
|| integrals_kinetic                    :    25       37.59s   0.497%  ------ ||
|| projectors_func_ovlp_box             :    26       40.56s   0.536%  ------ ||
|| aug_nonlocal_mat                     :   714       42.93s   0.567%  ------ ||
|| function_ops_brappd_ketppd           :    52       44.22s   0.584%  ------ ||
|| eigenstates_pdos                     :     1       45.83s   0.606%  ------ ||
|| augmentation_density_on_grid         :   540       46.63s   0.616%  ------ ||
|| sparse_trace                         :  6760       49.14s   0.649%  ------ ||
|| hamiltonian_energy_components        :     3       55.88s   0.739%  ------ ||
|| fourier_apply_cell_forward           :  2696       61.93s   0.818% 151.523 ||
|| fourier_apply_cell_backward          :  2697       66.42s   0.878% 141.337 ||
|| basis_dot_function_with_box          : 2.534M      69.03s   0.912%  ------ ||
|| eigenstates_calculate                :     1       86.34s   1.141%  ------ ||
|| restart_ngwfs_tightbox_output        :    12      107.37s   1.419%  ------ ||
|| xc_energy_potential                  :   539      113.36s   1.498%  ------ ||
|| sparse_product                       :  6075      165.17s   2.183%  ------ ||
|| basis_add_function_to_box            : 7.132M     189.65s   2.506%  ------ ||
|| dense_eigensolve                     :   511      215.72s   2.851%  ------ ||
|| projectors_gradient_batch            :    26      291.69s   3.855%  ------ ||
|| cell_grid_deposit_box_real           : 20029      311.93s   4.123%  ------ ||
|| integrals_locpot_mat_els_batch       :   366      318.13s   4.205%  ------ ||
|| cell_grid_extract_box_real           :  6252      337.52s   4.461%  ------ ||
|| projectors_grad_precond_batch        :    26      417.94s   5.524%  ------ ||
|| edft_diag_ngwf_ham                   :   510      535.05s   7.071%  ------ ||
|| density_fftbox_deposit_to_cell       :  9180      569.55s   7.527%  ------ ||
|| density_batch_row_sums               :  1080      645.87s   8.536%  ------ ||
|| properties_calculate                 :     1      757.23s  10.008%  ------ ||
|| ngwf_gradient_build_batch            :    26      793.22s  10.484%  ------ ||
|| fourier_apply_box                    : 35773      844.10s  11.156%  3.154k ||
|| potential_apply_to_ngwf_batch        :   366      853.22s  11.276%  ------ ||
|| ngwf_gradient_batch                  :    26      863.71s  11.415%  ------ ||
|| edft_apply_smearing_operator         :   510      931.28s  12.308%  ------ ||
|| density_fftbox_interpolate_multiply  :  9180      937.46s  12.390%  ------ ||
|| ngwf_gradient_lnv                    :    13     1134.56s  14.995%  ------ ||
|| integrals_locpot_dbl_grid            :   183     1176.46s  15.549%  ------ ||
|| density_batch_interp_deposit         :  1080     1937.79s  25.611%  ------ ||
|| density_on_dbl_grid                  :   540     2686.03s  35.500%  ------ ||
|| hamiltonian_lhxc_calculate           :   535     2992.75s  39.553%  ------ ||
|| edft_calculate                       :    13     5146.38s  68.017%  ------ ||
|| ngwf_cg_optimise                     :     1     6791.91s  89.765%  ------ ||
|| total_time                           :     1     7566.36s 100.000%  ------ ||
================================================================================
Overhead of generating timer report: 
- 0 ms averaging over threads,
- 20 ms ensuring consistency across MPI ranks,
- 0 ms printing in order.

Job completed: 17-05-2020 10:14 (+0100)

