 +---------------------------------------------------------------+
 |                                                               |
 |        ####### #     # ####### ####### ####### ######         |
 |        #     # ##    # #          #    #       #     #        |
 |        #     # # #   # #          #    #       #     #        |
 |        #     # #  #  # #####      #    #####   ######         |
 |        #     # #   # # #          #    #       #              |
 |        #     # #    ## #          #    #       #              |
 |        ####### #     # #######    #    ####### #              |
 |                                                               |
 |        Linear-Scaling Ab Initio Total Energy Program          |
 |                                                               |
 |          Release for academic collaborators of ODG            |
 |                                             Version 5.3.2.12  |
 |                                                               |
 +---------------------------------------------------------------+
 |                                                               |
 |  Authors:                                                     |
 |  Jacek Dziedzic, Peter D. Haynes, Nicholas D. M. Hine,        |
 |  Arash. A. Mostofi, Mike C. Payne and Chris-Kriton Skylaris   |
 |                                                               |
 |  Contributors:                                                |
 |  J. Aarons, L. Andrinopoulos, P. W. Avraam, R. A. Bell,       |
 |  A. Bhandari, G. A. Bramley, R. J. Charlton, S. J. Clark,     |
 |  R. J. Clements, G. C. Constantinescu, F. Corsetti,           |
 |  N. Corsini, O. Dieguez, S. M. M. Dubois, K. K. B. Duff,      |
 |  J. M. Escartin, A. Greco, H. Helal, Q. O. Hill, L. P. Lee,   |
 |  J.-H. Li, E. B. Linscott, G. Moynihan, D. D. O`Regan,        |
 |  O. K. Okan, M. J. S. Phipps, C. J. Pickard,                  |
 |  J. C. A. Prentice, M. I. J. Probert, L. E. Ratcliff,         |
 |  M. Robinson, A. Ruiz Serrano, J. S. Spencer, E. W. Tait,     |
 |  G. Teobaldi, D. Turban, V. Vitale, K. A. Wilkinson,          |
 |  C. Weber, J. C. Womack, N. Yeung and T. J. Zuehlsdorff       |
 |                                                               |
 |                                   Copyright (c) 2004-2020     |
 |                                                               |
 |  Please cite:                                                 |
 |  "Introducing ONETEP: Linear-scaling density functional       |
 |   simulations on parallel computers".                         |
 |   C.-K. Skylaris, P. D. Haynes, A. A. Mostofi, M. C. Payne.   |
 |   J. Chem. Phys. 122 084119 (2005).                           |
 |                                                               |
 |          in all publications arising from your use of ONETEP. |
 |                                                               |
 +---------------------------------------------------------------+
 |                                                               |
 |   ONETEP is based on developments described in the following  |
 |   publications:                                               |
 |                                                               |
 |  "Nonorthogonal generalized Wannier function pseudopotential  |
 |   plane-wave method".                                         |
 |   C.-K. Skylaris, A. A. Mostofi, P. D. Haynes, O. Dieguez,    |
 |   M. C. Payne.                                                |
 |   Phys. Rev. B 66 035119 (2002).                              |
 |                                                               |
 |  "Preconditioned iterative minimization for linear-scaling    |
 |   electronic structure calculations".                         |
 |   A. A. Mostofi, P. D. Haynes, C.-K. Skylaris, M. C. Payne.   |
 |   J. Chem. Phys. 119(17), pp.8842-8848 (2003).                |
 |                                                               |
 |  "Total-energy calculations on a real space grid with         |
 |   localized functions and a plane-wave basis".                |
 |   A. A. Mostofi, C.-K. Skylaris, P. D. Haynes, M. C. Payne.   |
 |   Comput. Phys. Commun. 147, pp.788-802 (2002).               |
 |                                                               |
 |  "Accurate kinetic energy evaluation in electronic structure  |
 |   calculations with localized functions on real space grids"  |
 |   C.-K. Skylaris, A. A. Mostofi, P. D. Haynes, C. J. Pickard, |
 |   M. C. Payne.                                                |
 |   Comput. Phys. Commun. 140, pp.315-322 (2001).               |
 |                                                               |
 |  "Accurate ionic forces and geometry optimization in linear-  |
 |   scaling density-functional theory with local orbitals"      |
 |   N. D. M. Hine, M. Robinson, P. D. Haynes, C.-K. Skylaris,   |
 |   M. C. Payne, and A. A. Mostofi.                             |
 |   Phys. Rev. B 83 195102 (2011).                              |
 |                                                               |
 +---------------------------------------------------------------+

Job started: 21-02-2020 14:56 (-0000)
 
Reading parameters from file "2.9783632_GO_manual_4x64graphite.dat" ...

WARNING: "cutoff_energy" not specified, but "psinc_spacing" specified.
         Using the latter to set the KE cutoff energy to  732.32021eV,
         thus *overriding* the default.

... done

If your calculation crashes here, before "Checking processes and threads..."
is displayed, then your stack size is insufficient.
If so, use "ulimit -s unlimited" at runtime.
You can disable this check with "check_stack_size F".

Checking processes and threads...
   Determining the default number of threads...
      No default threads set at compilation time: defaulting to 1.
      OpenMP library call suggests 4 threads.
      Hybrid MPI-OpenMP compilation detected.
      Number of MPI processes > 1.
      OMP_NUM_THREADS environment variable present and
      its value matches the one obtained from the OpenMP library call.
      Using this value as default.
      Default threads: 4
      Default applies to threads_max and threads_num_fftboxes.
      Settings in the input file override this default.
   ... done

   Running with 40 MPI processes.
   There are 10 MPI processes running on the same node as the root process.
   Each MPI process is using: 
               1 threads for simulation cell FFTs.
               1 threads for parallel FFT box operations.
               4 threads for loops over batched FFT box operations.
               4 threads in other parallel regions.
... done

Basic input checks...
Resetting ngwf_cg_rotate to TRUE for EDFT calculations
... done

Reading geometry and species blocks from file "2.9783632_GO_manual_4x64graphite.dat" ...
    
  PSINC grid spacing along a1 set to   0.511215680000a0 from input file.
  PSINC grid spacing along a2 set to   0.531284090000a0 from input file.
  PSINC grid spacing along a3 set to   0.507054260000a0 from input file.
  PSINC grid spacing along a1 set to   0.511215680000a0 from input file.
  PSINC grid spacing along a2 set to   0.531284090000a0 from input file.
  PSINC grid spacing along a3 set to   0.507054260000a0 from input file.
  Number of PPD points along a3 set to 1.  This is 
  the default value, it may have been provided also in the input file.
... done
 Writing xyz coordinates to file "2.9783632_GO_manual_4x64graphite.xyz" ... done


--------------------------------------------------------------------------------
---------------------------------- INPUT FILE ----------------------------------
--------------------------------------------------------------------------------

task : singlepoint                                                              
do_properties : true                                                            
dx_format T                                                                     
edft T                                                                          
output_detail VERBOSE                                                           
write_xyz T                                                                     
xc_functional AVV10S                                                            
PSINC_SPACING 0.51121568 0.53128409 0.50705426                                  
paw T                                                                           
pdos_max_l = 2                                                                  
dos_smear  0.1 eV                                                               
popn_calculate T                                                                
PDOS_PSEUDOATOMIC T                                                             
PDOS_REDUCE_SWS F                                                               
PDOS_CONSTRUCT_BASIS F                                                          
PDOS_LOWDIN T                                                                   
PDOS_ORTH_ATOM_BLOCKS F                                                         
PDOS_LCAO_OPTIMIZE F                                                            
pdos_optados_output T                                                           
homo_plot 0                                                                     
lumo_plot 0                                                                     
homo_dens_plot -1                                                               
lumo_dens_plot -1                                                               
%BLOCK SPECIES                                                                  
C C 6 4 9.0                                                                     
%ENDBLOCK SPECIES                                                               
%BLOCK SPECIES_POT                                                              
C "~/pp/paw/c_pbe_abinit.paw"                                                   
%ENDBLOCK SPECIES_POT                                                           
%BLOCK SPECIES_ATOMIC_SET                                                       
C "SOLVE conf=2s2 2p2"                                                          
%ENDBLOCK SPECIES_ATOMIC_SET                                                    
%BLOCK LATTICE_CART                                                             
32.21  0.00  0.00                                                               
0.00 18.59  0.00                                                                
0.00  0.00 56.28                                                                
%ENDBLOCK LATTICE_CART                                                          
%BLOCK POSITIONS_ABS                                                            
C  0.00  0.00  2.81                                                             
C  0.00  0.00 14.07                                                             
C  0.00  0.00 25.33                                                             
C  0.00  0.00 36.58                                                             
C  0.00  0.00 47.84                                                             
C  0.00  4.65  2.81                                                             
C  0.00  4.65 14.07                                                             
C  0.00  4.65 25.33                                                             
C  0.00  4.65 36.58                                                             
C  0.00  4.65 47.84                                                             
C  4.03  2.32  2.81                                                             
C  4.03  2.32 14.07                                                             
C  4.03  2.32 25.33                                                             
C  4.03  2.32 36.58                                                             
C  4.03  2.32 47.84                                                             
C  8.05  0.00  2.81                                                             
C  8.05  0.00 14.07                                                             
C  8.05  0.00 25.33                                                             
C  8.05  0.00 36.58                                                             
C  8.05  0.00 47.84                                                             
C  0.00  9.30  2.81                                                             
C  0.00  9.30 14.07                                                             
C  0.00  9.30 25.33                                                             
C  0.00  9.30 36.58                                                             
C  0.00  9.30 47.84                                                             
C  4.03  6.97  2.81                                                             
C  4.03  6.97 14.07                                                             
C  4.03  6.97 25.33                                                             
C  4.03  6.97 36.58                                                             
C  4.03  6.97 47.84                                                             
C  8.05  4.65  2.81                                                             
C  8.05  4.65 14.07                                                             
C  8.05  4.65 25.33                                                             
C  8.05  4.65 36.58                                                             
C  8.05  4.65 47.84                                                             
C 12.08  2.32  2.81                                                             
C 12.08  2.32 14.07                                                             
C 12.08  2.32 25.33                                                             
C 12.08  2.32 36.58                                                             
C 12.08  2.32 47.84                                                             
C 16.10  0.00  2.81                                                             
C 16.10  0.00 14.07                                                             
C 16.10  0.00 25.33                                                             
C 16.10  0.00 36.58                                                             
C 16.10  0.00 47.84                                                             
C  0.00 13.95  2.81                                                             
C  0.00 13.95 14.07                                                             
C  0.00 13.95 25.33                                                             
C  0.00 13.95 36.58                                                             
C  0.00 13.95 47.84                                                             
C  4.03 11.62  2.81                                                             
C  4.03 11.62 14.07                                                             
C  4.03 11.62 25.33                                                             
C  4.03 11.62 36.58                                                             
C  4.03 11.62 47.84                                                             
C  8.05  9.30  2.81                                                             
C  8.05  9.30 14.07                                                             
C  8.05  9.30 25.33                                                             
C  8.05  9.30 36.58                                                             
C  8.05  9.30 47.84                                                             
C 12.08  6.97  2.81                                                             
C 12.08  6.97 14.07                                                             
C 12.08  6.97 25.33                                                             
C 12.08  6.97 36.58                                                             
C 12.08  6.97 47.84                                                             
C 16.10  4.65  2.81                                                             
C 16.10  4.65 14.07                                                             
C 16.10  4.65 25.33                                                             
C 16.10  4.65 36.58                                                             
C 16.10  4.65 47.84                                                             
C 20.13  2.32  2.81                                                             
C 20.13  2.32 14.07                                                             
C 20.13  2.32 25.33                                                             
C 20.13  2.32 36.58                                                             
C 20.13  2.32 47.84                                                             
C 24.16  0.00  2.81                                                             
C 24.16  0.00 14.07                                                             
C 24.16  0.00 25.33                                                             
C 24.16  0.00 36.58                                                             
C 24.16  0.00 47.84                                                             
C  4.03 16.27  2.81                                                             
C  4.03 16.27 14.07                                                             
C  4.03 16.27 25.33                                                             
C  4.03 16.27 36.58                                                             
C  4.03 16.27 47.84                                                             
C  8.05 13.95  2.81                                                             
C  8.05 13.95 14.07                                                             
C  8.05 13.95 25.33                                                             
C  8.05 13.95 36.58                                                             
C  8.05 13.95 47.84                                                             
C 12.08 11.62  2.81                                                             
C 12.08 11.62 14.07                                                             
C 12.08 11.62 25.33                                                             
C 12.08 11.62 36.58                                                             
C 12.08 11.62 47.84                                                             
C 16.10  9.30  2.81                                                             
C 16.10  9.30 14.07                                                             
C 16.10  9.30 25.33                                                             
C 16.10  9.30 36.58                                                             
C 16.10  9.30 47.84                                                             
C 20.13  6.97  2.81                                                             
C 20.13  6.97 14.07                                                             
C 20.13  6.97 25.33                                                             
C 20.13  6.97 36.58                                                             
C 20.13  6.97 47.84                                                             
C 24.16  4.65  2.81                                                             
C 24.16  4.65 14.07                                                             
C 24.16  4.65 25.33                                                             
C 24.16  4.65 36.58                                                             
C 24.16  4.65 47.84                                                             
C 28.18  2.32  2.81                                                             
C 28.18  2.32 14.07                                                             
C 28.18  2.32 25.33                                                             
C 28.18  2.32 36.58                                                             
C 28.18  2.32 47.84                                                             
C 12.08 16.27  2.81                                                             
C 12.08 16.27 14.07                                                             
C 12.08 16.27 25.33                                                             
C 12.08 16.27 36.58                                                             
C 12.08 16.27 47.84                                                             
C 16.10 13.95  2.81                                                             
C 16.10 13.95 14.07                                                             
C 16.10 13.95 25.33                                                             
C 16.10 13.95 36.58                                                             
C 16.10 13.95 47.84                                                             
C 20.13 11.62  2.81                                                             
C 20.13 11.62 14.07                                                             
C 20.13 11.62 25.33                                                             
C 20.13 11.62 36.58                                                             
C 20.13 11.62 47.84                                                             
C 24.16  9.30  2.81                                                             
C 24.16  9.30 14.07                                                             
C 24.16  9.30 25.33                                                             
C 24.16  9.30 36.58                                                             
C 24.16  9.30 47.84                                                             
C 28.18  6.97  2.81                                                             
C 28.18  6.97 14.07                                                             
C 28.18  6.97 25.33                                                             
C 28.18  6.97 36.58                                                             
C 28.18  6.97 47.84                                                             
C 20.13 16.27  2.81                                                             
C 20.13 16.27 14.07                                                             
C 20.13 16.27 25.33                                                             
C 20.13 16.27 36.58                                                             
C 20.13 16.27 47.84                                                             
C 24.16 13.95  2.81                                                             
C 24.16 13.95 14.07                                                             
C 24.16 13.95 25.33                                                             
C 24.16 13.95 36.58                                                             
C 24.16 13.95 47.84                                                             
C 28.18 11.62  2.81                                                             
C 28.18 11.62 14.07                                                             
C 28.18 11.62 25.33                                                             
C 28.18 11.62 36.58                                                             
C 28.18 11.62 47.84                                                             
C 28.18 16.27  2.81                                                             
C 28.18 16.27 14.07                                                             
C 28.18 16.27 25.33                                                             
C 28.18 16.27 36.58                                                             
C 28.18 16.27 47.84                                                             
C  0.00  0.00  8.44                                                             
C  0.00  0.00 19.70                                                             
C  0.00  0.00 30.96                                                             
C  0.00  0.00 42.21                                                             
C  0.00  0.00 53.47                                                             
C  0.00  4.65  8.44                                                             
C  0.00  4.65 19.70                                                             
C  0.00  4.65 30.96                                                             
C  0.00  4.65 42.21                                                             
C  0.00  4.65 53.47                                                             
C  4.03  2.32  8.44                                                             
C  4.03  2.32 19.70                                                             
C  4.03  2.32 30.96                                                             
C  4.03  2.32 42.21                                                             
C  4.03  2.32 53.47                                                             
C  8.05  0.00  8.44                                                             
C  8.05  0.00 19.70                                                             
C  8.05  0.00 30.96                                                             
C  8.05  0.00 42.21                                                             
C  8.05  0.00 53.47                                                             
C  0.00  9.30  8.44                                                             
C  0.00  9.30 19.70                                                             
C  0.00  9.30 30.96                                                             
C  0.00  9.30 42.21                                                             
C  0.00  9.30 53.47                                                             
C  4.03  6.97  8.44                                                             
C  4.03  6.97 19.70                                                             
C  4.03  6.97 30.96                                                             
C  4.03  6.97 42.21                                                             
C  4.03  6.97 53.47                                                             
C  8.05  4.65  8.44                                                             
C  8.05  4.65 19.70                                                             
C  8.05  4.65 30.96                                                             
C  8.05  4.65 42.21                                                             
C  8.05  4.65 53.47                                                             
C 12.08  2.32  8.44                                                             
C 12.08  2.32 19.70                                                             
C 12.08  2.32 30.96                                                             
C 12.08  2.32 42.21                                                             
C 12.08  2.32 53.47                                                             
C 16.10  0.00  8.44                                                             
C 16.10  0.00 19.70                                                             
C 16.10  0.00 30.96                                                             
C 16.10  0.00 42.21                                                             
C 16.10  0.00 53.47                                                             
C  0.00 13.95  8.44                                                             
C  0.00 13.95 19.70                                                             
C  0.00 13.95 30.96                                                             
C  0.00 13.95 42.21                                                             
C  0.00 13.95 53.47                                                             
C  4.03 11.62  8.44                                                             
C  4.03 11.62 19.70                                                             
C  4.03 11.62 30.96                                                             
C  4.03 11.62 42.21                                                             
C  4.03 11.62 53.47                                                             
C  8.05  9.30  8.44                                                             
C  8.05  9.30 19.70                                                             
C  8.05  9.30 30.96                                                             
C  8.05  9.30 42.21                                                             
C  8.05  9.30 53.47                                                             
C 12.08  6.97  8.44                                                             
C 12.08  6.97 19.70                                                             
C 12.08  6.97 30.96                                                             
C 12.08  6.97 42.21                                                             
C 12.08  6.97 53.47                                                             
C 16.10  4.65  8.44                                                             
C 16.10  4.65 19.70                                                             
C 16.10  4.65 30.96                                                             
C 16.10  4.65 42.21                                                             
C 16.10  4.65 53.47                                                             
C 20.13  2.32  8.44                                                             
C 20.13  2.32 19.70                                                             
C 20.13  2.32 30.96                                                             
C 20.13  2.32 42.21                                                             
C 20.13  2.32 53.47                                                             
C 24.16  0.00  8.44                                                             
C 24.16  0.00 19.70                                                             
C 24.16  0.00 30.96                                                             
C 24.16  0.00 42.21                                                             
C 24.16  0.00 53.47                                                             
C  4.03 16.27  8.44                                                             
C  4.03 16.27 19.70                                                             
C  4.03 16.27 30.96                                                             
C  4.03 16.27 42.21                                                             
C  4.03 16.27 53.47                                                             
C  8.05 13.95  8.44                                                             
C  8.05 13.95 19.70                                                             
C  8.05 13.95 30.96                                                             
C  8.05 13.95 42.21                                                             
C  8.05 13.95 53.47                                                             
C 12.08 11.62  8.44                                                             
C 12.08 11.62 19.70                                                             
C 12.08 11.62 30.96                                                             
C 12.08 11.62 42.21                                                             
C 12.08 11.62 53.47                                                             
C 16.10  9.30  8.44                                                             
C 16.10  9.30 19.70                                                             
C 16.10  9.30 30.96                                                             
C 16.10  9.30 42.21                                                             
C 16.10  9.30 53.47                                                             
C 20.13  6.97  8.44                                                             
C 20.13  6.97 19.70                                                             
C 20.13  6.97 30.96                                                             
C 20.13  6.97 42.21                                                             
C 20.13  6.97 53.47                                                             
C 24.16  4.65  8.44                                                             
C 24.16  4.65 19.70                                                             
C 24.16  4.65 30.96                                                             
C 24.16  4.65 42.21                                                             
C 24.16  4.65 53.47                                                             
C 28.18  2.32  8.44                                                             
C 28.18  2.32 19.70                                                             
C 28.18  2.32 30.96                                                             
C 28.18  2.32 42.21                                                             
C 28.18  2.32 53.47                                                             
C 12.08 16.27  8.44                                                             
C 12.08 16.27 19.70                                                             
C 12.08 16.27 30.96                                                             
C 12.08 16.27 42.21                                                             
C 12.08 16.27 53.47                                                             
C 16.10 13.95  8.44                                                             
C 16.10 13.95 19.70                                                             
C 16.10 13.95 30.96                                                             
C 16.10 13.95 42.21                                                             
C 16.10 13.95 53.47                                                             
C 20.13 11.62  8.44                                                             
C 20.13 11.62 19.70                                                             
C 20.13 11.62 30.96                                                             
C 20.13 11.62 42.21                                                             
C 20.13 11.62 53.47                                                             
C 24.16  9.30  8.44                                                             
C 24.16  9.30 19.70                                                             
C 24.16  9.30 30.96                                                             
C 24.16  9.30 42.21                                                             
C 24.16  9.30 53.47                                                             
C 28.18  6.97  8.44                                                             
C 28.18  6.97 19.70                                                             
C 28.18  6.97 30.96                                                             
C 28.18  6.97 42.21                                                             
C 28.18  6.97 53.47                                                             
C 20.13 16.27  8.44                                                             
C 20.13 16.27 19.70                                                             
C 20.13 16.27 30.96                                                             
C 20.13 16.27 42.21                                                             
C 20.13 16.27 53.47                                                             
C 24.16 13.95  8.44                                                             
C 24.16 13.95 19.70                                                             
C 24.16 13.95 30.96                                                             
C 24.16 13.95 42.21                                                             
C 24.16 13.95 53.47                                                             
C 28.18 11.62  8.44                                                             
C 28.18 11.62 19.70                                                             
C 28.18 11.62 30.96                                                             
C 28.18 11.62 42.21                                                             
C 28.18 11.62 53.47                                                             
C 28.18 16.27  8.44                                                             
C 28.18 16.27 19.70                                                             
C 28.18 16.27 30.96                                                             
C 28.18 16.27 42.21                                                             
C 28.18 16.27 53.47                                                             
C  1.34  2.32  2.81                                                             
C  1.34  2.32 14.07                                                             
C  1.34  2.32 25.33                                                             
C  1.34  2.32 36.58                                                             
C  1.34  2.32 47.84                                                             
C  5.37  0.00  2.81                                                             
C  5.37  0.00 14.07                                                             
C  5.37  0.00 25.33                                                             
C  5.37  0.00 36.58                                                             
C  5.37  0.00 47.84                                                             
C  1.34  6.97  2.81                                                             
C  1.34  6.97 14.07                                                             
C  1.34  6.97 25.33                                                             
C  1.34  6.97 36.58                                                             
C  1.34  6.97 47.84                                                             
C  5.37  4.65  2.81                                                             
C  5.37  4.65 14.07                                                             
C  5.37  4.65 25.33                                                             
C  5.37  4.65 36.58                                                             
C  5.37  4.65 47.84                                                             
C  9.39  2.32  2.81                                                             
C  9.39  2.32 14.07                                                             
C  9.39  2.32 25.33                                                             
C  9.39  2.32 36.58                                                             
C  9.39  2.32 47.84                                                             
C 13.42  0.00  2.81                                                             
C 13.42  0.00 14.07                                                             
C 13.42  0.00 25.33                                                             
C 13.42  0.00 36.58                                                             
C 13.42  0.00 47.84                                                             
C  1.34 11.62  2.81                                                             
C  1.34 11.62 14.07                                                             
C  1.34 11.62 25.33                                                             
C  1.34 11.62 36.58                                                             
C  1.34 11.62 47.84                                                             
C  5.37  9.30  2.81                                                             
C  5.37  9.30 14.07                                                             
C  5.37  9.30 25.33                                                             
C  5.37  9.30 36.58                                                             
C  5.37  9.30 47.84                                                             
C  9.39  6.97  2.81                                                             
C  9.39  6.97 14.07                                                             
C  9.39  6.97 25.33                                                             
C  9.39  6.97 36.58                                                             
C  9.39  6.97 47.84                                                             
C 13.42  4.65  2.81                                                             
C 13.42  4.65 14.07                                                             
C 13.42  4.65 25.33                                                             
C 13.42  4.65 36.58                                                             
C 13.42  4.65 47.84                                                             
C 17.45  2.32  2.81                                                             
C 17.45  2.32 14.07                                                             
C 17.45  2.32 25.33                                                             
C 17.45  2.32 36.58                                                             
C 17.45  2.32 47.84                                                             
C 21.47  0.00  2.81                                                             
C 21.47  0.00 14.07                                                             
C 21.47  0.00 25.33                                                             
C 21.47  0.00 36.58                                                             
C 21.47  0.00 47.84                                                             
C  1.34 16.27  2.81                                                             
C  1.34 16.27 14.07                                                             
C  1.34 16.27 25.33                                                             
C  1.34 16.27 36.58                                                             
C  1.34 16.27 47.84                                                             
C  5.37 13.95  2.81                                                             
C  5.37 13.95 14.07                                                             
C  5.37 13.95 25.33                                                             
C  5.37 13.95 36.58                                                             
C  5.37 13.95 47.84                                                             
C  9.39 11.62  2.81                                                             
C  9.39 11.62 14.07                                                             
C  9.39 11.62 25.33                                                             
C  9.39 11.62 36.58                                                             
C  9.39 11.62 47.84                                                             
C 13.42  9.30  2.81                                                             
C 13.42  9.30 14.07                                                             
C 13.42  9.30 25.33                                                             
C 13.42  9.30 36.58                                                             
C 13.42  9.30 47.84                                                             
C 17.45  6.97  2.81                                                             
C 17.45  6.97 14.07                                                             
C 17.45  6.97 25.33                                                             
C 17.45  6.97 36.58                                                             
C 17.45  6.97 47.84                                                             
C 21.47  4.65  2.81                                                             
C 21.47  4.65 14.07                                                             
C 21.47  4.65 25.33                                                             
C 21.47  4.65 36.58                                                             
C 21.47  4.65 47.84                                                             
C 25.50  2.32  2.81                                                             
C 25.50  2.32 14.07                                                             
C 25.50  2.32 25.33                                                             
C 25.50  2.32 36.58                                                             
C 25.50  2.32 47.84                                                             
C 29.52  0.00  2.81                                                             
C 29.52  0.00 14.07                                                             
C 29.52  0.00 25.33                                                             
C 29.52  0.00 36.58                                                             
C 29.52  0.00 47.84                                                             
C  9.39 16.27  2.81                                                             
C  9.39 16.27 14.07                                                             
C  9.39 16.27 25.33                                                             
C  9.39 16.27 36.58                                                             
C  9.39 16.27 47.84                                                             
C 13.42 13.95  2.81                                                             
C 13.42 13.95 14.07                                                             
C 13.42 13.95 25.33                                                             
C 13.42 13.95 36.58                                                             
C 13.42 13.95 47.84                                                             
C 17.45 11.62  2.81                                                             
C 17.45 11.62 14.07                                                             
C 17.45 11.62 25.33                                                             
C 17.45 11.62 36.58                                                             
C 17.45 11.62 47.84                                                             
C 21.47  9.30  2.81                                                             
C 21.47  9.30 14.07                                                             
C 21.47  9.30 25.33                                                             
C 21.47  9.30 36.58                                                             
C 21.47  9.30 47.84                                                             
C 25.50  6.97  2.81                                                             
C 25.50  6.97 14.07                                                             
C 25.50  6.97 25.33                                                             
C 25.50  6.97 36.58                                                             
C 25.50  6.97 47.84                                                             
C 29.52  4.65  2.81                                                             
C 29.52  4.65 14.07                                                             
C 29.52  4.65 25.33                                                             
C 29.52  4.65 36.58                                                             
C 29.52  4.65 47.84                                                             
C 17.45 16.27  2.81                                                             
C 17.45 16.27 14.07                                                             
C 17.45 16.27 25.33                                                             
C 17.45 16.27 36.58                                                             
C 17.45 16.27 47.84                                                             
C 21.47 13.95  2.81                                                             
C 21.47 13.95 14.07                                                             
C 21.47 13.95 25.33                                                             
C 21.47 13.95 36.58                                                             
C 21.47 13.95 47.84                                                             
C 25.50 11.62  2.81                                                             
C 25.50 11.62 14.07                                                             
C 25.50 11.62 25.33                                                             
C 25.50 11.62 36.58                                                             
C 25.50 11.62 47.84                                                             
C 29.52  9.30  2.81                                                             
C 29.52  9.30 14.07                                                             
C 29.52  9.30 25.33                                                             
C 29.52  9.30 36.58                                                             
C 29.52  9.30 47.84                                                             
C 25.50 16.27  2.81                                                             
C 25.50 16.27 14.07                                                             
C 25.50 16.27 25.33                                                             
C 25.50 16.27 36.58                                                             
C 25.50 16.27 47.84                                                             
C 29.52 13.95  2.81                                                             
C 29.52 13.95 14.07                                                             
C 29.52 13.95 25.33                                                             
C 29.52 13.95 36.58                                                             
C 29.52 13.95 47.84                                                             
C  2.68  0.00  8.44                                                             
C  2.68  0.00 19.70                                                             
C  2.68  0.00 30.96                                                             
C  2.68  0.00 42.21                                                             
C  2.68  0.00 53.47                                                             
C  2.68  4.65  8.44                                                             
C  2.68  4.65 19.70                                                             
C  2.68  4.65 30.96                                                             
C  2.68  4.65 42.21                                                             
C  2.68  4.65 53.47                                                             
C  6.71  2.32  8.44                                                             
C  6.71  2.32 19.70                                                             
C  6.71  2.32 30.96                                                             
C  6.71  2.32 42.21                                                             
C  6.71  2.32 53.47                                                             
C 10.74  0.00  8.44                                                             
C 10.74  0.00 19.70                                                             
C 10.74  0.00 30.96                                                             
C 10.74  0.00 42.21                                                             
C 10.74  0.00 53.47                                                             
C  2.68  9.30  8.44                                                             
C  2.68  9.30 19.70                                                             
C  2.68  9.30 30.96                                                             
C  2.68  9.30 42.21                                                             
C  2.68  9.30 53.47                                                             
C  6.71  6.97  8.44                                                             
C  6.71  6.97 19.70                                                             
C  6.71  6.97 30.96                                                             
C  6.71  6.97 42.21                                                             
C  6.71  6.97 53.47                                                             
C 10.74  4.65  8.44                                                             
C 10.74  4.65 19.70                                                             
C 10.74  4.65 30.96                                                             
C 10.74  4.65 42.21                                                             
C 10.74  4.65 53.47                                                             
C 14.76  2.32  8.44                                                             
C 14.76  2.32 19.70                                                             
C 14.76  2.32 30.96                                                             
C 14.76  2.32 42.21                                                             
C 14.76  2.32 53.47                                                             
C 18.79  0.00  8.44                                                             
C 18.79  0.00 19.70                                                             
C 18.79  0.00 30.96                                                             
C 18.79  0.00 42.21                                                             
C 18.79  0.00 53.47                                                             
C  2.68 13.95  8.44                                                             
C  2.68 13.95 19.70                                                             
C  2.68 13.95 30.96                                                             
C  2.68 13.95 42.21                                                             
C  2.68 13.95 53.47                                                             
C  6.71 11.62  8.44                                                             
C  6.71 11.62 19.70                                                             
C  6.71 11.62 30.96                                                             
C  6.71 11.62 42.21                                                             
C  6.71 11.62 53.47                                                             
C 10.74  9.30  8.44                                                             
C 10.74  9.30 19.70                                                             
C 10.74  9.30 30.96                                                             
C 10.74  9.30 42.21                                                             
C 10.74  9.30 53.47                                                             
C 14.76  6.97  8.44                                                             
C 14.76  6.97 19.70                                                             
C 14.76  6.97 30.96                                                             
C 14.76  6.97 42.21                                                             
C 14.76  6.97 53.47                                                             
C 18.79  4.65  8.44                                                             
C 18.79  4.65 19.70                                                             
C 18.79  4.65 30.96                                                             
C 18.79  4.65 42.21                                                             
C 18.79  4.65 53.47                                                             
C 22.81  2.32  8.44                                                             
C 22.81  2.32 19.70                                                             
C 22.81  2.32 30.96                                                             
C 22.81  2.32 42.21                                                             
C 22.81  2.32 53.47                                                             
C 26.84  0.00  8.44                                                             
C 26.84  0.00 19.70                                                             
C 26.84  0.00 30.96                                                             
C 26.84  0.00 42.21                                                             
C 26.84  0.00 53.47                                                             
C  6.71 16.27  8.44                                                             
C  6.71 16.27 19.70                                                             
C  6.71 16.27 30.96                                                             
C  6.71 16.27 42.21                                                             
C  6.71 16.27 53.47                                                             
C 10.74 13.95  8.44                                                             
C 10.74 13.95 19.70                                                             
C 10.74 13.95 30.96                                                             
C 10.74 13.95 42.21                                                             
C 10.74 13.95 53.47                                                             
C 14.76 11.62  8.44                                                             
C 14.76 11.62 19.70                                                             
C 14.76 11.62 30.96                                                             
C 14.76 11.62 42.21                                                             
C 14.76 11.62 53.47                                                             
C 18.79  9.30  8.44                                                             
C 18.79  9.30 19.70                                                             
C 18.79  9.30 30.96                                                             
C 18.79  9.30 42.21                                                             
C 18.79  9.30 53.47                                                             
C 22.81  6.97  8.44                                                             
C 22.81  6.97 19.70                                                             
C 22.81  6.97 30.96                                                             
C 22.81  6.97 42.21                                                             
C 22.81  6.97 53.47                                                             
C 26.84  4.65  8.44                                                             
C 26.84  4.65 19.70                                                             
C 26.84  4.65 30.96                                                             
C 26.84  4.65 42.21                                                             
C 26.84  4.65 53.47                                                             
C 30.86  2.32  8.44                                                             
C 30.86  2.32 19.70                                                             
C 30.86  2.32 30.96                                                             
C 30.86  2.32 42.21                                                             
C 30.86  2.32 53.47                                                             
C 14.76 16.27  8.44                                                             
C 14.76 16.27 19.70                                                             
C 14.76 16.27 30.96                                                             
C 14.76 16.27 42.21                                                             
C 14.76 16.27 53.47                                                             
C 18.79 13.95  8.44                                                             
C 18.79 13.95 19.70                                                             
C 18.79 13.95 30.96                                                             
C 18.79 13.95 42.21                                                             
C 18.79 13.95 53.47                                                             
C 22.81 11.62  8.44                                                             
C 22.81 11.62 19.70                                                             
C 22.81 11.62 30.96                                                             
C 22.81 11.62 42.21                                                             
C 22.81 11.62 53.47                                                             
C 26.84  9.30  8.44                                                             
C 26.84  9.30 19.70                                                             
C 26.84  9.30 30.96                                                             
C 26.84  9.30 42.21                                                             
C 26.84  9.30 53.47                                                             
C 30.86  6.97  8.44                                                             
C 30.86  6.97 19.70                                                             
C 30.86  6.97 30.96                                                             
C 30.86  6.97 42.21                                                             
C 30.86  6.97 53.47                                                             
C 22.81 16.27  8.44                                                             
C 22.81 16.27 19.70                                                             
C 22.81 16.27 30.96                                                             
C 22.81 16.27 42.21                                                             
C 22.81 16.27 53.47                                                             
C 26.84 13.95  8.44                                                             
C 26.84 13.95 19.70                                                             
C 26.84 13.95 30.96                                                             
C 26.84 13.95 42.21                                                             
C 26.84 13.95 53.47                                                             
C 30.86 11.62  8.44                                                             
C 30.86 11.62 19.70                                                             
C 30.86 11.62 30.96                                                             
C 30.86 11.62 42.21                                                             
C 30.86 11.62 53.47                                                             
C 30.86 16.27  8.44                                                             
C 30.86 16.27 19.70                                                             
C 30.86 16.27 30.96                                                             
C 30.86 16.27 42.21                                                             
C 30.86 16.27 53.47                                                             
%ENDBLOCK POSITIONS_ABS                                                         

--------------------------------------------------------------------------------
-------------------------------- END INPUT FILE --------------------------------
--------------------------------------------------------------------------------


 
<<<<<<<<<<<<<<<<<<<<<<<<<<<<<<<<< Full system >>>>>>>>>>>>>>>>>>>>>>>>>>>>>>>>>>
<<<<<<<<<<<<<<<<<<<<<<<<<<< PAW Dataset information >>>>>>>>>>>>>>>>>>>>>>>>>>>
File: ~/pp/paw/c_pbe_abinit.paw; rc = 1.25 bohr; shape type =  3; rshape = 1.25 bohr;
  Atomic number:  6;  ionic charge:  4.000000
    Partial Wave 1: l = 0
    Partial Wave 2: l = 0
    Partial Wave 3: l = 1
    Partial Wave 4: l = 1
  Core charge supplied for Nonlinear Core Corrections
<<<<<<<<<<<<<<<<<<<<<<<<<<<<<<<<<<<<<<< >>>>>>>>>>>>>>>>>>>>>>>>>>>>>>>>>>>>>>>

-------------------------- Atom counting information ---------------------------
Symbol    Natoms    Nngwfs    Nprojs
  C        640      2560      5120
.......   ......    ......    ......
Totals:    640      2560      5120
--------------------------------------------------------------------------------

=============================== PSINC grid sizes ===============================
                      Simulation cell:   63 x  35 x 111
                              FFT-box:   63 x  35 x 111
                                  PPD:    7 x   5 x   1
Grid space d1=  0.511269841270a0 (KE cutoff=  29.06054Eh = 790.77748eV)
Grid space d2=  0.531142857143a0 (KE cutoff=  26.92659Eh = 732.70972eV)
Grid space d3=  0.507027027027a0 (KE cutoff=  29.54893Eh = 804.06734eV)
================================================================================
  
WARNING in cell_grid_distribute:
Average of less than one 23-slab per node, so workload cannot be
equally balanced between nodes.

********************* Fourier parallelisation information **********************
       Coarse grid (whole simulation cell) dimensions:     63    35   111
          Real-space ('12') slabs/node (min max mean):      2     3     2
         Recip-space ('23') slabs/node (min max mean):      0     1     0
********************************************************************************

********************* Fourier parallelisation information **********************
       Double grid (whole simulation cell) dimensions:    126    70   222
          Real-space ('12') slabs/node (min max mean):      5     6     5
         Recip-space ('23') slabs/node (min max mean):      1     2     1
********************************************************************************

Atom SCF Calculation for C  : Z (AE atom) =   6 : Z (PS atom) =   4
Config String: 2s2 2p2
Orbitals (num,occ):  2     2.00 2.00
Orbitals   (num,l):  2        0    1
Real-space Grid (nr,dr,rmax): 1293    0.0069659443    9.0000000000
Spherical Bessel Basis (nsws,lmax,cutoff):   37    2  161.4736382572
Confining potential (l,width,scale):  0    3.0000000000  100.0000000000
Confining potential (l,width,scale):  1    3.0000000000  100.0000000000
  1         -5.4129360987   -1.2444937266    4.5135257941   -1.5420271367
  2         -5.3444202281   -1.3377187790    4.4131101426   -1.5071921700
  3         -5.3525226456   -1.3566567794    4.3924752240   -1.5004938544
  4         -5.3561013121   -1.3623552809    4.3862114699   -1.4986199617
  5         -5.3580093800   -1.3653574582    4.3828991843   -1.4976654093
  6         -5.3590276761   -1.3669475005    4.3811409016   -1.4971696795
  7         -5.3595688314   -1.3677934914    4.3802040659   -1.4969088858
  8         -5.3598556216   -1.3682449178    4.3797036984   -1.4967706290
  9         -5.3600074081   -1.3684862338    4.3794360452   -1.4966970063
 10         -5.3600877081   -1.3686153812    4.3792927313   -1.4966576988
 11         -5.3601301919   -1.3686845537    4.3792159394   -1.4966366788
 12         -5.3601526758   -1.3687216261    4.3791747687   -1.4966254262
 13         -5.3601645804   -1.3687415049    4.3791526850   -1.4966193980
 14         -5.3601708871   -1.3687521691    4.3791408341   -1.4966161667
 15         -5.3601742301   -1.3687578926    4.3791344719   -1.4966144337
 16         -5.3601760032   -1.3687609656    4.3791310549   -1.4966135039
 17         -5.3601769442   -1.3687626162    4.3791292190   -1.4966130048
 18         -5.3601774440   -1.3687635032    4.3791282322   -1.4966127369
 19         -5.3601777096   -1.3687639799    4.3791277016   -1.4966125929
 20         -5.3601778508   -1.3687642363    4.3791274162   -1.4966125155
 21         -5.3601779259   -1.3687643743    4.3791272626   -1.4966124740
Atom SCF converged after  21 iterations to a total energy of     -5.36017793

Determining parallel strategy ...
... using space-filling curve
... NGWF load balancing: max     64;  min     64;  average     64
... Projector load balancing: max    128;  min    128;  average    128
... done
Calculating Ewald energy ...
              Ewald: real-space energy =    9587.663868
        Ewald: reciprocal-space energy =       0.020809
         Ewald: (sum_charge)**2 Energy =   11771.953624
         Ewald: (sum_charge**2) Energy =     930.654649
                          Ewald Energy =   -3114.923596
Basis initialisation ...... NGWF spheres initialised
... Projector spheres initialised
... NGWF tight boxes initialised
... Projector tight boxes initialised
... Tight-boxes gathered
... NGWF basis size (local,global):     695476  27897184
... PAW projector initialisation
... done

============================= Charge Augmentation ==============================
                           Aug box size:   11 x  11 x  11
================================================================================

========================== Sparse matrix information ===========================
                        Overlap matrix filling:  49.84%
                        Density kernel filling: 100.00%
              NGWF-Proj overlap matrix filling:  13.12%
                    Aug Overlap matrix filling:  51.72%
                    Hamiltonian matrix filling:  51.72%
                  NGWF diagonal matrix filling:   0.16%
                             KS matrix filling: 100.00% 
                           KSKS matrix filling: 100.00% 
================================================================================

Sparse matrix initialisation ... done
NGWF initialisation ...... done
============ Calculation of NGWF S^-1 using Hotelling algorithm ================ 
         Iteration  |  Frobenius norm and Maximum abs value    (of I-S*S_n^-1)   
               1       0.49376921E+02     0.98011578E+00
               2       0.48372185E+02     0.96193176E+00
               3       0.46809871E+02     0.92970732E+00
               4       0.44696093E+02     0.87714746E+00
               5       0.42092072E+02     0.79903659E+00
               6       0.38954985E+02     0.70408131E+00
               7       0.35467783E+02     0.65156356E+00
               8       0.32080951E+02     0.60848509E+00
               9       0.28752312E+02     0.56947041E+00
              10       0.24820213E+02     0.51584881E+00
              11       0.19679728E+02     0.42785150E+00
              12       0.13262619E+02     0.29850128E+00
              13       0.67072791E+01     0.15143307E+00
              14       0.20218719E+01     0.43130103E-01
              15       0.21945096E+00     0.41819735E-02
              16       0.31289520E-02     0.49232898E-04
              17       0.90125230E-06     0.94484788E-08
              18       0.14986664E-12     0.58841820E-14
================================================================================
Calculating core density ...
================================= Core Density =================================
               Core den box size:   21 x  21 x  21
================================================================================
 ... done
Up spin density kernel initialisation ...... done

Writing density kernel to file "2.9783632_GO_manual_4x64graphite.dkn" ... done

>>> Optimising kernel for current NGWFs:

--------------------------- Ensemble-DFT optimisation --------------------------
Running ScaLAPACK on   40 processor(s).

--------------------------------------------------------------------------------
  Iter                              Commutator    Free_energy(A=E-TS)     DeltaA
#    0                          0.000080641521   -3621.10895337286047  -3.62E+03

Step                       =       0.381966011250
Energy                     =   -3621.108909836260
Entropy (-TS)              =      -0.000043536586
Free energy (A=E-TS)       =   -3621.108953372860
Est. 0K Energy 0.5*(E+A)   =   -3621.108931604560
Residual Non-orthogonality =       0.000000000000
Residual N_electrons       =      -0.000000000014

Spin          Integrated_Ne            Fermi_level     Delta_Fermi_level
   1      2560.000000000052         0.278226040885              2.78E-01

                           Spin 1          
     Orb      H-eigenvalues     Occupancies
       1 |    -0.4524681927    1.0000000000 | 
                          ------
    1276 |     0.2460111948    0.9999618003 | 
    1277 |     0.2463238808    0.9999578362 | 
    1278 |     0.2465909329    0.9999541265 | 
    1279 |     0.2466081082    0.9999538771 | 
    1280 |     0.2468962690    0.9999494835 | 
                 - Gap at zero temperature -
    1281 |     0.3112030169    0.0000300293 | 
    1282 |     0.3112382882    0.0000296967 | 
    1283 |     0.3114279058    0.0000279708 | 
    1284 |     0.3114432310    0.0000278358 | 
    1285 |     0.3114631630    0.0000276612 | 
                          ------
    2560 |     1.1207659167    0.0000000000 | 

                       |  Abs_value |  Threshold | Converged
     Delta_Free_energy |   3.62E+03 |   1.00E-06 |        No
     Delta_Energy      |   3.62E+03 |   1.00E-04 |        No
     Delta_Entropy     |   4.35E-05 |   1.00E-04 |       Yes
     Commutator        |   8.06E-05 |   1.00E-05 |        No
     Delta_Fermi_level |   2.78E-01 |   1.00E-03 |        No

  Line search of the free energy minimum:
  Step_type        Step             Free_energy   Predicted_free_energy
.   Initial    0.000000    -3621.10895337286047
.    Trial1    0.381966    -3621.11598199959190
.    Trial2    0.618034    -3621.11427591154143
. Quadratic    0.412858    -3621.11602077245880    -3621.11602157280004

--------------------------------------------------------------------------------
  Iter                              Commutator    Free_energy(A=E-TS)     DeltaA
#    1                          0.000031320677   -3621.11602077245880  -7.07E-03

Step                       =       0.412858081013
Energy                     =   -3621.115977262769
Entropy (-TS)              =      -0.000043509281
Free energy (A=E-TS)       =   -3621.116020772459
Est. 0K Energy 0.5*(E+A)   =   -3621.115999017614
Residual Non-orthogonality =       0.000000000000
Residual N_electrons       =      -0.000000000409

Spin          Integrated_Ne            Fermi_level     Delta_Fermi_level
   1      2560.000000001459         0.280687708884              2.46E-03

                           Spin 1          
     Orb      H-eigenvalues     Occupancies
       1 |    -0.4499230202    1.0000000000 | 
                          ------
    1276 |     0.2485618461    0.9999607117 | 
    1277 |     0.2489069733    0.9999561882 | 
    1278 |     0.2489959820    0.9999549394 | 
    1279 |     0.2490366360    0.9999543572 | 
    1280 |     0.2493586026    0.9999494729 | 
                 - Gap at zero temperature -
    1281 |     0.3136765065    0.0000299174 | 
    1282 |     0.3137464322    0.0000292641 | 
    1283 |     0.3137846102    0.0000289134 | 
    1284 |     0.3138183854    0.0000286067 | 
    1285 |     0.3140129951    0.0000269017 | 
                          ------
    2560 |     1.1260036397    0.0000000000 | 

                       |  Abs_value |  Threshold | Converged
     Delta_Free_energy |   7.07E-03 |   1.00E-06 |        No
     Delta_Energy      |   7.07E-03 |   1.00E-04 |        No
     Delta_Entropy     |   2.73E-08 |   1.00E-04 |       Yes
     Commutator        |   3.13E-05 |   1.00E-05 |        No
     Delta_Fermi_level |   2.46E-03 |   1.00E-03 |        No

  Line search of the free energy minimum:
  Step_type        Step             Free_energy   Predicted_free_energy
.   Initial    0.000000    -3621.11602077245880
.    Trial1    0.412858    -3621.11687926767399
.    Trial2    0.637126    -3621.11624910415912
. Quadratic    0.341914    -3621.11691809058311    -3621.11691789156885

--------------------------------------------------------------------------------
  Iter                              Commutator    Free_energy(A=E-TS)     DeltaA
#    2                          0.000022799836   -3621.11691809058311  -8.97E-04

Step                       =       0.341913500212
Energy                     =   -3621.116875054287
Entropy (-TS)              =      -0.000043036345
Free energy (A=E-TS)       =   -3621.116918090583
Est. 0K Energy 0.5*(E+A)   =   -3621.116896572435
Residual Non-orthogonality =       0.000000000000
Residual N_electrons       =       0.000000000048

Spin          Integrated_Ne            Fermi_level     Delta_Fermi_level
   1      2559.999999999830         0.281700039124              1.01E-03

                           Spin 1          
     Orb      H-eigenvalues     Occupancies
       1 |    -0.4487000925    1.0000000000 | 
                          ------
    1276 |     0.2495232172    0.9999613389 | 
    1277 |     0.2498473355    0.9999571726 | 
    1278 |     0.2499852687    0.9999552660 | 
    1279 |     0.2500275291    0.9999546651 | 
    1280 |     0.2503284296    0.9999501465 | 
                 - Gap at zero temperature -
    1281 |     0.3147273763    0.0000295556 | 
    1282 |     0.3147987261    0.0000288971 | 
    1283 |     0.3148532397    0.0000284040 | 
    1284 |     0.3148867093    0.0000281054 | 
    1285 |     0.3150342339    0.0000268261 | 
                          ------
    2560 |     1.1285036524    0.0000000000 | 

                       |  Abs_value |  Threshold | Converged
     Delta_Free_energy |   8.97E-04 |   1.00E-06 |        No
     Delta_Energy      |   8.98E-04 |   1.00E-04 |        No
     Delta_Entropy     |   4.73E-07 |   1.00E-04 |       Yes
     Commutator        |   2.28E-05 |   1.00E-05 |        No
     Delta_Fermi_level |   1.01E-03 |   1.00E-03 |        No

  Line search of the free energy minimum:
  Step_type        Step             Free_energy   Predicted_free_energy
.   Initial    0.000000    -3621.11691809058311
.    Trial1    0.341914    -3621.11712588997398
.    Trial2    0.593280    -3621.11592387244082
. Quadratic    0.204407    -3621.11729777501068    -3621.11729766188455

--------------------------------------------------------------------------------
  Iter                              Commutator    Free_energy(A=E-TS)     DeltaA
#    3                          0.000015317447   -3621.11729777501068  -3.80E-04

Step                       =       0.204406635756
Energy                     =   -3621.117254894296
Entropy (-TS)              =      -0.000042880052
Free energy (A=E-TS)       =   -3621.117297775011
Est. 0K Energy 0.5*(E+A)   =   -3621.117276334653
Residual Non-orthogonality =       0.000000000000
Residual N_electrons       =      -0.000000000663

Spin          Integrated_Ne            Fermi_level     Delta_Fermi_level
   1      2560.000000002349         0.282106307892              4.06E-04

                           Spin 1          
     Orb      H-eigenvalues     Occupancies
       1 |    -0.4482159329    1.0000000000 | 
                          ------
    1276 |     0.2499172755    0.9999614876 | 
    1277 |     0.2502370336    0.9999573961 | 
    1278 |     0.2503807782    0.9999554178 | 
    1279 |     0.2504227369    0.9999548232 | 
    1280 |     0.2507193244    0.9999503879 | 
                 - Gap at zero temperature -
    1281 |     0.3151457110    0.0000294432 | 
    1282 |     0.3152167364    0.0000287902 | 
    1283 |     0.3152709306    0.0000283017 | 
    1284 |     0.3153045435    0.0000280029 | 
    1285 |     0.3154528256    0.0000267220 | 
                          ------
    2560 |     1.1294894659    0.0000000000 | 

                       |  Abs_value |  Threshold | Converged
     Delta_Free_energy |   3.80E-04 |   1.00E-06 |        No
     Delta_Energy      |   3.80E-04 |   1.00E-04 |        No
     Delta_Entropy     |   1.56E-07 |   1.00E-04 |       Yes
     Commutator        |   1.53E-05 |   1.00E-05 |        No
     Delta_Fermi_level |   4.06E-04 |   1.00E-03 |       Yes

  Line search of the free energy minimum:
  Step_type        Step             Free_energy   Predicted_free_energy
.   Initial    0.000000    -3621.11729777501068
.    Trial1    0.204407    -3621.11746553063222
.    Trial2    0.508296    -3621.11737307371868
. Quadratic    0.287616    -3621.11748084995361    -3621.11748085409727

--------------------------------------------------------------------------------
  Iter                              Commutator    Free_energy(A=E-TS)     DeltaA
[...]
 C    77 -- C   237       -0.04      5.63000
 C    38 -- C   197       -0.04      5.63000
 C    37 -- C   197       -0.04      5.63000
 C     2 -- C   162       -0.04      5.63000
 C    18 -- C   177       -0.04      5.63000
 C    17 -- C   177       -0.04      5.63000
 C   158 -- C   317       -0.04      5.63000
 C   157 -- C   317       -0.04      5.63000
 C    73 -- C   232       -0.04      5.63000
 C    72 -- C   232       -0.04      5.63000
 C   153 -- C   312       -0.04      5.63000
 C   152 -- C   312       -0.04      5.63000
 C   148 -- C   307       -0.04      5.63000
 C   147 -- C   307       -0.04      5.63000
 C    68 -- C   227       -0.04      5.63000
 C    67 -- C   227       -0.04      5.63000
 C    33 -- C   192       -0.04      5.63000
 C    32 -- C   192       -0.04      5.63000
 C   143 -- C   302       -0.04      5.63000
 C   142 -- C   302       -0.04      5.63000
 C     8 -- C   167       -0.04      5.63000
 C   138 -- C   297       -0.04      5.63000
 C   137 -- C   297       -0.04      5.63000
 C     7 -- C   167       -0.04      5.63000
 C    63 -- C   222       -0.04      5.63000
 C    62 -- C   222       -0.04      5.63000
 C   133 -- C   292       -0.04      5.63000
 C   132 -- C   292       -0.04      5.63000
 C   128 -- C   287       -0.04      5.63000
 C   127 -- C   287       -0.04      5.63000
 C   123 -- C   282       -0.04      5.63000
 C    58 -- C   217       -0.04      5.63000
 C   122 -- C   282       -0.04      5.63000
 C    57 -- C   217       -0.04      5.63000
 C    28 -- C   187       -0.04      5.63000
 C    27 -- C   187       -0.04      5.63000
 C   118 -- C   277       -0.04      5.63000
 C   117 -- C   277       -0.04      5.63000
 C   113 -- C   272       -0.04      5.63000
 C   112 -- C   272       -0.04      5.63000
 C    53 -- C   212       -0.04      5.63000
 C    52 -- C   212       -0.04      5.63000
 C    13 -- C   172       -0.04      5.63000
 C    12 -- C   172       -0.04      5.63000
 C   108 -- C   267       -0.04      5.63000
 C   107 -- C   267       -0.04      5.63000
 C   103 -- C   262       -0.04      5.63000
 C   102 -- C   262       -0.04      5.63000
 C    48 -- C   207       -0.04      5.63000
 C    47 -- C   207       -0.04      5.63000
 C    23 -- C   182       -0.04      5.63000
 C    22 -- C   182       -0.04      5.63000
 C    98 -- C   257       -0.04      5.63000
 C    97 -- C   257       -0.04      5.63000
 C    93 -- C   252       -0.04      5.63000
 C    92 -- C   252       -0.04      5.63000
 C    43 -- C   202       -0.04      5.63000
 C    42 -- C   202       -0.04      5.63000
 C    88 -- C   247       -0.04      5.63000
 C    87 -- C   247       -0.04      5.63000
 C    86 -- C   246       -0.04      5.63000
 C    41 -- C   201       -0.04      5.63000
 C    81 -- C   241       -0.04      5.63000
 C     1 -- C   161       -0.04      5.63000
 C    76 -- C   236       -0.04      5.63000
 C    36 -- C   196       -0.04      5.63000
 C   156 -- C   316       -0.04      5.63000
 C    71 -- C   231       -0.04      5.63000
 C   151 -- C   311       -0.04      5.63000
 C    16 -- C   176       -0.04      5.63000
 C   146 -- C   306       -0.04      5.63000
 C    66 -- C   226       -0.04      5.63000
 C   141 -- C   301       -0.04      5.63000
 C    31 -- C   191       -0.04      5.63000
 C   136 -- C   296       -0.04      5.63000
 C   131 -- C   291       -0.04      5.63000
 C    61 -- C   221       -0.04      5.63000
 C   126 -- C   286       -0.04      5.63000
 C   121 -- C   281       -0.04      5.63000
 C    56 -- C   216       -0.04      5.63000
 C    26 -- C   186       -0.04      5.63000
 C   116 -- C   276       -0.04      5.63000
 C     6 -- C   166       -0.04      5.63000
 C   111 -- C   271       -0.04      5.63000
 C    51 -- C   211       -0.04      5.63000
 C   106 -- C   266       -0.04      5.63000
 C   101 -- C   261       -0.04      5.63000
 C    11 -- C   171       -0.04      5.63000
 C    46 -- C   206       -0.04      5.63000
 C    96 -- C   256       -0.04      5.63000
 C    21 -- C   181       -0.04      5.63000
 C    91 -- C   251       -0.04      5.63000
 C    87 -- C   246       -0.04      5.63000
 C    42 -- C   201       -0.04      5.63000
 C    82 -- C   241       -0.04      5.63000
 C     2 -- C   161       -0.04      5.63000
 C    77 -- C   236       -0.04      5.63000
 C    37 -- C   196       -0.04      5.63000
 C   157 -- C   316       -0.04      5.63000
 C    72 -- C   231       -0.04      5.63000
 C   152 -- C   311       -0.04      5.63000
 C    17 -- C   176       -0.04      5.63000
 C   147 -- C   306       -0.04      5.63000
 C    67 -- C   226       -0.04      5.63000
 C   142 -- C   301       -0.04      5.63000
 C    32 -- C   191       -0.04      5.63000
 C   137 -- C   296       -0.04      5.63000
 C   132 -- C   291       -0.04      5.63000
 C    62 -- C   221       -0.04      5.63000
 C   127 -- C   286       -0.04      5.63000
 C   122 -- C   281       -0.04      5.63000
 C    57 -- C   216       -0.04      5.63000
 C    27 -- C   186       -0.04      5.63000
 C     7 -- C   166       -0.04      5.63000
 C   117 -- C   276       -0.04      5.63000
 C   112 -- C   271       -0.04      5.63000
 C    52 -- C   211       -0.04      5.63000
 C   107 -- C   266       -0.04      5.63000
 C    12 -- C   171       -0.04      5.63000
 C   102 -- C   261       -0.04      5.63000
 C    47 -- C   206       -0.04      5.63000
 C    97 -- C   256       -0.04      5.63000
 C    22 -- C   181       -0.04      5.63000
 C    92 -- C   251       -0.04      5.63000
 C    85 -- C   244       -0.04      5.63000
 C    84 -- C   244       -0.04      5.63000
 C    20 -- C   179       -0.04      5.63000
 C    19 -- C   179       -0.04      5.63000
 C    83 -- C   243       -0.04      5.63000
 C    10 -- C   169       -0.04      5.63000
 C     9 -- C   169       -0.04      5.63000
 C    40 -- C   199       -0.04      5.63000
 C    39 -- C   199       -0.04      5.63000
 C    80 -- C   239       -0.04      5.63000
 C    79 -- C   239       -0.04      5.63000
 C    78 -- C   238       -0.04      5.63000
 C    18 -- C   178       -0.04      5.63000
 C    38 -- C   198       -0.04      5.63000
 C     5 -- C   164       -0.04      5.63000
 C     4 -- C   164       -0.04      5.63000
 C    75 -- C   234       -0.04      5.63000
 C    74 -- C   234       -0.04      5.63000
 C   160 -- C   319       -0.04      5.63000
 C   159 -- C   319       -0.04      5.63000
 C    73 -- C   233       -0.04      5.63000
 C   158 -- C   318       -0.04      5.63000
 C   155 -- C   314       -0.04      5.63000
 C   154 -- C   314       -0.04      5.63000
 C    35 -- C   194       -0.04      5.63000
 C   153 -- C   313       -0.04      5.63000
 C    34 -- C   194       -0.04      5.63000
 C   150 -- C   309       -0.04      5.63000
 C   149 -- C   309       -0.04      5.63000
 C    70 -- C   229       -0.04      5.63000
 C    69 -- C   229       -0.04      5.63000
 C   148 -- C   308       -0.04      5.63000
 C     8 -- C   168       -0.04      5.63000
 C    33 -- C   193       -0.04      5.63000
 C    68 -- C   228       -0.04      5.63000
 C   145 -- C   304       -0.04      5.63000
 C   144 -- C   304       -0.04      5.63000
 C   143 -- C   303       -0.04      5.63000
 C   140 -- C   299       -0.04      5.63000
 C   139 -- C   299       -0.04      5.63000
 C   138 -- C   298       -0.04      5.63000
 C    65 -- C   224       -0.04      5.63000
 C    64 -- C   224       -0.04      5.63000
 C   135 -- C   294       -0.04      5.63000
 C   134 -- C   294       -0.04      5.63000
 C    63 -- C   223       -0.04      5.63000
 C   133 -- C   293       -0.04      5.63000
 C    30 -- C   189       -0.04      5.63000
 C    29 -- C   189       -0.04      5.63000
 C    15 -- C   174       -0.04      5.63000
 C   130 -- C   289       -0.04      5.63000
 C   129 -- C   289       -0.04      5.63000
 C    14 -- C   174       -0.04      5.63000
 C   128 -- C   288       -0.04      5.63000
 C    60 -- C   219       -0.04      5.63000
 C    59 -- C   219       -0.04      5.63000
 C   125 -- C   284       -0.04      5.63000
 C   124 -- C   284       -0.04      5.63000
 C    28 -- C   188       -0.04      5.63000
 C    58 -- C   218       -0.04      5.63000
 C   123 -- C   283       -0.04      5.63000
 C   120 -- C   279       -0.04      5.63000
 C   119 -- C   279       -0.04      5.63000
 C   118 -- C   278       -0.04      5.63000
 C    55 -- C   214       -0.04      5.63000
 C    54 -- C   214       -0.04      5.63000
 C   115 -- C   274       -0.04      5.63000
 C   114 -- C   274       -0.04      5.63000
 C   113 -- C   273       -0.04      5.63000
 C    13 -- C   173       -0.04      5.63000
 C    53 -- C   213       -0.04      5.63000
 C     3 -- C   163       -0.04      5.63000
 C   110 -- C   269       -0.04      5.63000
 C   109 -- C   269       -0.04      5.63000
 C    25 -- C   184       -0.04      5.63000
 C   108 -- C   268       -0.04      5.63000
 C    24 -- C   184       -0.04      5.63000
 C    50 -- C   209       -0.04      5.63000
 C    49 -- C   209       -0.04      5.63000
 C   105 -- C   264       -0.04      5.63000
 C   104 -- C   264       -0.04      5.63000
 C   103 -- C   263       -0.04      5.63000
 C    48 -- C   208       -0.04      5.63000
 C    23 -- C   183       -0.04      5.63000
 C   100 -- C   259       -0.04      5.63000
 C    99 -- C   259       -0.04      5.63000
 C    98 -- C   258       -0.04      5.63000
 C    95 -- C   254       -0.04      5.63000
 C    94 -- C   254       -0.04      5.63000
 C    45 -- C   204       -0.04      5.63000
 C    44 -- C   204       -0.04      5.63000
 C    93 -- C   253       -0.04      5.63000
 C    43 -- C   203       -0.04      5.63000
 C    90 -- C   249       -0.04      5.63000
 C    89 -- C   249       -0.04      5.63000
 C    88 -- C   248       -0.04      5.63000
==================================================


=================== Orbital energy and occupancy information ===================

      Total number of orbitals:    2560
        Occupancy sum (kernel):    1280.000000000
   Occupancy sum (eigenvalues):    1280.000000000
                 HOMO-LUMO gap:       0.000000719 Eh
                 Mid-gap level:       0.342340606 Eh

                        Orbital | Energy (Eh) | Occupancy
                            1    -0.418630341   1.0000000
                        .......   ...........   .........
                         1272     0.276722700   0.9999805
                         1273     0.277174471   0.9999776
                         1274     0.277191102   0.9999774
                         1275     0.279180368   0.9999575
                         1276     0.279565345   0.9999521
                         1277     0.280074710   0.9999438
                         1278     0.280088460   0.9999436
                         1279     0.280485870   0.9999360
                         1280     0.280499903   0.9999357
                         1281     0.342340247   0.0000513
                        ....... -- gap at 0K -- .........
                         1282     0.342340966   0.0000513
                         1283     0.342589742   0.0000474
                         1284     0.342590495   0.0000474
                         1285     0.344081315   0.0000298
                         1286     0.344092456   0.0000297
                         1287     0.344353743   0.0000273
                         1288     0.344364970   0.0000272
                         1289     0.345009136   0.0000222
                         1290     0.345291627   0.0000204
                         1291     0.346069652   0.0000157
                        .......   ...........   .........
                         2560     1.212406127   0.0000000

================================================================================

===================== Writing canonical molecular orbitals =====================
| Orbital  Energy (eV)  Norm     |
| HOMO      9.31555212  1.000000 | Writing "2.9783632_GO_manual_4x64graphite_HOMO.cube" ... done
Writing "2.9783632_GO_manual_4x64graphite_HOMO.dx" ... done
| LUMO      9.31557168  1.000000 | Writing "2.9783632_GO_manual_4x64graphite_LUMO.cube" ... done
Writing "2.9783632_GO_manual_4x64graphite_LUMO.dx" ... done
================================================================================
 
===================== Density of States (DOS) calculation ======================
Writing "2.9783632_GO_manual_4x64graphite_DOS.txt" ...  done
================================================================================
 
Writing bands to file "2.9783632_GO_manual_4x64graphite.val_bands" ... done
 
================ Projected Density of States (pDOS) calculation ================
 
Constructing AM resolved functions  ...... done
Writing NGWF plot files in formats: CUBE DX ...  done
 
Performing overlap integrals ...  done
 
Computing pDOS weights ...  done
 
All bands spilling parameter =   3.73 %
Occupancy-weighted spilling parameter =   0.74 %
 
 => Outputting data for OptaDOS <=
 
Writing pDOS weights to file "2.9783632_GO_manual_4x64graphite.val_pdos_bin" ... done
 
Writing band gradients to file "2.9783632_GO_manual_4x64graphite.val_dome_bin" ... done
 
Writing Castep output cell file to "2.9783632_GO_manual_4x64graphite-out.cell" ... done
 
 => Computing Gaussian smeared pDOS <= 
Writing "2.9783632_GO_manual_4x64graphite_PDOS.txt" ...  done
 
 => Computing Occupancy-weighted Gaussian smeared pDOS <= 
Writing "2.9783632_GO_manual_4x64graphite_occ_PDOS.txt" ...  done
  => Band centres: 
 S band centre of group 1:  -15.416495 eV
 P band centre of group 1:   -8.381986 eV
  Band centres done. <=
  => Integrated number of electrons in each AM band: 
 S num electrons of group 1:  572.066990
 P num electrons of group 1: 1969.049978
  Integrated number of electrons done. <=
================================================================================

------------------------------ TIMING INFORMATION ------------------------------
AVERAGE TIME:    4570.696s on     40 node(s)                                    
TOTAL TIME:      4570.696s on     40 node(s)                                    
================= AVERAGE TIMINGS FROM ALL NODES (CUMULATIVE) ==================
|| TAG                                    #calls    cpu time   %total  Gflops ||
|| work_imbalance                       :     1        0.00s   0.000%  ------ ||
|| paw_tcore_hartree_on_grid            :     1        0.01s   0.000%  ------ ||
|| paw_tcore_density                    :     1        0.01s   0.000%  ------ ||
|| paw_sphere_density_on_grid           :     1        0.01s   0.000%  ------ ||
|| sparse_set_to_garbage                :   171        0.03s   0.001%  ------ ||
|| pseudo_make_structure_factor         :     1        0.05s   0.001%  ------ ||
|| paw_dij_hartree                      :   409        0.05s   0.001%  ------ ||
|| basis_extract_function_from_box      :  1920        0.08s   0.002%  ------ ||
|| paw_species_calc_proj_prec_mat       :     1        0.12s   0.003%  ------ ||
|| paw_dataset_init                     :     1        0.15s   0.003%  ------ ||
|| density_init_guess_real              :     1        0.49s   0.011%  ------ ||
|| restart_kernel_write                 :    16        0.78s   0.017%  ------ ||
|| sparse_init                          :     1        1.01s   0.022%  ------ ||
|| dense_normal_eigensolve              :     1        1.02s   0.022%  ------ ||
|| hartree_on_grid                      :   306        1.50s   0.033%  ------ ||
|| ngwfs_initialise_from_radial         :     2        1.83s   0.040%  ------ ||
|| ewald_calculate_energy               :     1        2.28s   0.050%  ------ ||
|| projectors_init_fftbox_recip         :   151        2.79s   0.061%  ------ ||
|| basis_copy_function_to_box           : 28672        5.50s   0.120%  ------ ||
|| fourier_apply_box_pair               :  2848        5.85s   0.128% 426.786 ||
|| augmentation_screen_dij              :   311        6.71s   0.147%  ------ ||
|| sw_init                              :     1        6.73s   0.147%  ------ ||
|| sparse_embed_hotelling_invert_embed  :    29        9.07s   0.199%  ------ ||
|| ngwf_gradient_coeffs                 :    15       12.06s   0.264%  ------ ||
|| cell_grid_extract_box_real           : 12156       15.60s   0.341%  ------ ||
|| fourier_apply_cell_backward          :  9457       17.41s   0.381%  56.168 ||
|| fourier_apply_cell_forward           :  8846       19.64s   0.430%  46.577 ||
|| sparse_trace                         :  3728       21.06s   0.461%  ------ ||
|| cell_grid_deposit_box_real           : 39344       23.28s   0.509%  ------ ||
|| paw_dij_xc                           :   409       32.51s   0.711%  ------ ||
|| density_fftbox_deposit_to_cell       : 19584       40.74s   0.891%  ------ ||
|| aug_nonlocal_mat                     :   394       47.46s   1.038%  ------ ||
|| hamiltonian_energy_components        :     3       53.27s   1.165%  ------ ||
|| eigenstates_pdos                     :     1       54.77s   1.198%  ------ ||
|| augmentation_density_on_grid         :   306       58.73s   1.285%  ------ ||
|| eigenstates_calculate                :     1       59.03s   1.291%  ------ ||
|| function_ops_brappd_ketppd           :    60       68.78s   1.505%  ------ ||
|| projectors_func_ovlp_box             :    30       74.16s   1.622%  ------ ||
|| nlxc_vdw_energy                      :   610       83.60s   1.829%  ------ ||
|| xc_energy_potential                  :   305       86.09s   1.884%  ------ ||
|| restart_ngwfs_tightbox_output        :    14      102.52s   2.243%  ------ ||
|| properties_calculate                 :     1      104.15s   2.279%  ------ ||
|| integrals_kinetic                    :    29      118.90s   2.601%  ------ ||
|| dense_eigensolve                     :   273      130.47s   2.854%  ------ ||
|| potential_apply_to_ngwf_batch        :   388      149.78s   3.277%  ------ ||
|| sparse_product                       :  3669      166.36s   3.640%  ------ ||
|| projectors_gradient_batch            :    60      267.82s   5.859%  ------ ||
|| basis_dot_function_with_box          : 10.40M     282.57s   6.182%  ------ ||
|| edft_diag_ngwf_ham                   :   272      297.25s   6.503%  ------ ||
|| fourier_apply_box                    : 89568      308.01s   6.739% 842.688 ||
|| density_fftbox_interpolate_multiply  : 19584      375.86s   8.223%  ------ ||
|| projectors_grad_precond_batch        :    60      386.34s   8.453%  ------ ||
|| integrals_locpot_mat_els_batch       :   388      400.42s   8.761%  ------ ||
|| density_batch_interp_deposit         :  1224      459.77s  10.059%  ------ ||
|| integrals_locpot_dbl_grid            :    97      552.21s  12.082%  ------ ||
|| edft_apply_smearing_operator         :   272      583.48s  12.766%  ------ ||
|| ngwf_gradient_build_batch            :    60      699.36s  15.301%  ------ ||
|| basis_add_function_to_box            : 29.89M     776.87s  16.997%  ------ ||
|| ngwf_gradient_batch                  :    60      974.43s  21.319%  ------ ||
|| ngwf_gradient_lnv                    :    15     1010.43s  22.107%  ------ ||
|| density_batch_row_sums               :  1224     1152.00s  25.204%  ------ ||
|| density_on_dbl_grid                  :   306     1627.59s  35.609%  ------ ||
|| hamiltonian_lhxc_calculate           :   301     1755.45s  38.407%  ------ ||
|| edft_calculate                       :    15     2896.60s  63.373%  ------ ||
|| ngwf_cg_optimise                     :     1     4444.03s  97.229%  ------ ||
|| total_time                           :     1     4570.70s 100.000%  ------ ||
================================================================================
Overhead of generating timer report: 
- 0 ms averaging over threads,
- 5 ms ensuring consistency across MPI ranks,
- 0 ms printing in order.

Job completed: 21-02-2020 16:12 (-0000)

