 +---------------------------------------------------------------+
 |                                                               |
 |        ####### #     # ####### ####### ####### ######         |
 |        #     # ##    # #          #    #       #     #        |
 |        #     # # #   # #          #    #       #     #        |
 |        #     # #  #  # #####      #    #####   ######         |
 |        #     # #   # # #          #    #       #              |
 |        #     # #    ## #          #    #       #              |
 |        ####### #     # #######    #    ####### #              |
 |                                                               |
 |        Linear-Scaling Ab Initio Total Energy Program          |
 |                                                               |
 |          Release for academic collaborators of ODG            |
 |                                             Version 5.3.2.12  |
 |                                                               |
 +---------------------------------------------------------------+
 |                                                               |
 |  Authors:                                                     |
 |  Jacek Dziedzic, Peter D. Haynes, Nicholas D. M. Hine,        |
 |  Arash. A. Mostofi, Mike C. Payne and Chris-Kriton Skylaris   |
 |                                                               |
 |  Contributors:                                                |
 |  J. Aarons, L. Andrinopoulos, P. W. Avraam, R. A. Bell,       |
 |  A. Bhandari, G. A. Bramley, R. J. Charlton, S. J. Clark,     |
 |  R. J. Clements, G. C. Constantinescu, F. Corsetti,           |
 |  N. Corsini, O. Dieguez, S. M. M. Dubois, K. K. B. Duff,      |
 |  J. M. Escartin, A. Greco, H. Helal, Q. O. Hill, L. P. Lee,   |
 |  J.-H. Li, E. B. Linscott, G. Moynihan, D. D. O`Regan,        |
 |  O. K. Okan, M. J. S. Phipps, C. J. Pickard,                  |
 |  J. C. A. Prentice, M. I. J. Probert, L. E. Ratcliff,         |
 |  M. Robinson, A. Ruiz Serrano, J. S. Spencer, E. W. Tait,     |
 |  G. Teobaldi, D. Turban, V. Vitale, K. A. Wilkinson,          |
 |  C. Weber, J. C. Womack, N. Yeung and T. J. Zuehlsdorff       |
 |                                                               |
 |                                   Copyright (c) 2004-2020     |
 |                                                               |
 |  Please cite:                                                 |
 |  "Introducing ONETEP: Linear-scaling density functional       |
 |   simulations on parallel computers".                         |
 |   C.-K. Skylaris, P. D. Haynes, A. A. Mostofi, M. C. Payne.   |
 |   J. Chem. Phys. 122 084119 (2005).                           |
 |                                                               |
 |          in all publications arising from your use of ONETEP. |
 |                                                               |
 +---------------------------------------------------------------+
 |                                                               |
 |   ONETEP is based on developments described in the following  |
 |   publications:                                               |
 |                                                               |
 |  "Nonorthogonal generalized Wannier function pseudopotential  |
 |   plane-wave method".                                         |
 |   C.-K. Skylaris, A. A. Mostofi, P. D. Haynes, O. Dieguez,    |
 |   M. C. Payne.                                                |
 |   Phys. Rev. B 66 035119 (2002).                              |
 |                                                               |
 |  "Preconditioned iterative minimization for linear-scaling    |
 |   electronic structure calculations".                         |
 |   A. A. Mostofi, P. D. Haynes, C.-K. Skylaris, M. C. Payne.   |
 |   J. Chem. Phys. 119(17), pp.8842-8848 (2003).                |
 |                                                               |
 |  "Total-energy calculations on a real space grid with         |
 |   localized functions and a plane-wave basis".                |
 |   A. A. Mostofi, C.-K. Skylaris, P. D. Haynes, M. C. Payne.   |
 |   Comput. Phys. Commun. 147, pp.788-802 (2002).               |
 |                                                               |
 |  "Accurate kinetic energy evaluation in electronic structure  |
 |   calculations with localized functions on real space grids"  |
 |   C.-K. Skylaris, A. A. Mostofi, P. D. Haynes, C. J. Pickard, |
 |   M. C. Payne.                                                |
 |   Comput. Phys. Commun. 140, pp.315-322 (2001).               |
 |                                                               |
 |  "Accurate ionic forces and geometry optimization in linear-  |
 |   scaling density-functional theory with local orbitals"      |
 |   N. D. M. Hine, M. Robinson, P. D. Haynes, C.-K. Skylaris,   |
 |   M. C. Payne, and A. A. Mostofi.                             |
 |   Phys. Rev. B 83 195102 (2011).                              |
 |                                                               |
 +---------------------------------------------------------------+

Job started: 21-02-2020 16:38 (-0000)
 
Reading parameters from file "3.3271687999999995_GO_manual_4x64graphite.dat" ...

WARNING: "cutoff_energy" not specified, but "psinc_spacing" specified.
         Using the latter to set the KE cutoff energy to  732.32021eV,
         thus *overriding* the default.

... done

If your calculation crashes here, before "Checking processes and threads..."
is displayed, then your stack size is insufficient.
If so, use "ulimit -s unlimited" at runtime.
You can disable this check with "check_stack_size F".

Checking processes and threads...
   Determining the default number of threads...
      No default threads set at compilation time: defaulting to 1.
      OpenMP library call suggests 4 threads.
      Hybrid MPI-OpenMP compilation detected.
      Number of MPI processes > 1.
      OMP_NUM_THREADS environment variable present and
      its value matches the one obtained from the OpenMP library call.
      Using this value as default.
      Default threads: 4
      Default applies to threads_max and threads_num_fftboxes.
      Settings in the input file override this default.
   ... done

   Running with 40 MPI processes.
   There are 10 MPI processes running on the same node as the root process.
   Each MPI process is using: 
               1 threads for simulation cell FFTs.
               1 threads for parallel FFT box operations.
               4 threads for loops over batched FFT box operations.
               4 threads in other parallel regions.
... done

Basic input checks...
Resetting ngwf_cg_rotate to TRUE for EDFT calculations
... done

Reading geometry and species blocks from file "3.3271687999999995_GO_manual_4x64graphite.dat" ...
    
  PSINC grid spacing along a1 set to   0.511215680000a0 from input file.
  PSINC grid spacing along a2 set to   0.531284090000a0 from input file.
  PSINC grid spacing along a3 set to   0.507052480000a0 from input file.
  Number of PPD points along a3 set to 1.  This is 
  the default value, it may have been provided also in the input file.
... done
 Writing xyz coordinates to file "3.3271687999999995_GO_manual_4x64graphite.xyz" ... done


--------------------------------------------------------------------------------
---------------------------------- INPUT FILE ----------------------------------
--------------------------------------------------------------------------------

task : singlepoint                                                              
do_properties : true                                                            
dx_format T                                                                     
edft T                                                                          
output_detail VERBOSE                                                           
write_xyz T                                                                     
xc_functional AVV10S                                                            
PSINC_SPACING 0.51121568 0.53128409 0.50705248                                  
paw T                                                                           
pdos_max_l = 2                                                                  
dos_smear  0.1 eV                                                               
popn_calculate T                                                                
PDOS_PSEUDOATOMIC T                                                             
PDOS_REDUCE_SWS F                                                               
PDOS_CONSTRUCT_BASIS F                                                          
PDOS_LOWDIN T                                                                   
PDOS_ORTH_ATOM_BLOCKS F                                                         
PDOS_LCAO_OPTIMIZE F                                                            
pdos_optados_output T                                                           
homo_plot 0                                                                     
lumo_plot 0                                                                     
homo_dens_plot -1                                                               
lumo_dens_plot -1                                                               
%BLOCK SPECIES                                                                  
C C 6 4 9.0                                                                     
%ENDBLOCK SPECIES                                                               
%BLOCK SPECIES_POT                                                              
C "~/pp/paw/c_pbe_abinit.paw"                                                   
%ENDBLOCK SPECIES_POT                                                           
%BLOCK SPECIES_ATOMIC_SET                                                       
C "SOLVE conf=2s2 2p2"                                                          
%ENDBLOCK SPECIES_ATOMIC_SET                                                    
%BLOCK LATTICE_CART                                                             
32.21  0.00  0.00                                                               
0.00 18.59  0.00                                                                
0.00  0.00 62.87                                                                
%ENDBLOCK LATTICE_CART                                                          
%BLOCK POSITIONS_ABS                                                            
C  0.00  0.00  3.14                                                             
C  0.00  0.00 15.72                                                             
C  0.00  0.00 28.29                                                             
C  0.00  0.00 40.87                                                             
C  0.00  0.00 53.44                                                             
C  0.00  4.65  3.14                                                             
C  0.00  4.65 15.72                                                             
C  0.00  4.65 28.29                                                             
C  0.00  4.65 40.87                                                             
C  0.00  4.65 53.44                                                             
C  4.03  2.32  3.14                                                             
C  4.03  2.32 15.72                                                             
C  4.03  2.32 28.29                                                             
C  4.03  2.32 40.87                                                             
C  4.03  2.32 53.44                                                             
C  8.05  0.00  3.14                                                             
C  8.05  0.00 15.72                                                             
C  8.05  0.00 28.29                                                             
C  8.05  0.00 40.87                                                             
C  8.05  0.00 53.44                                                             
C  0.00  9.30  3.14                                                             
C  0.00  9.30 15.72                                                             
C  0.00  9.30 28.29                                                             
C  0.00  9.30 40.87                                                             
C  0.00  9.30 53.44                                                             
C  4.03  6.97  3.14                                                             
C  4.03  6.97 15.72                                                             
C  4.03  6.97 28.29                                                             
C  4.03  6.97 40.87                                                             
C  4.03  6.97 53.44                                                             
C  8.05  4.65  3.14                                                             
C  8.05  4.65 15.72                                                             
C  8.05  4.65 28.29                                                             
C  8.05  4.65 40.87                                                             
C  8.05  4.65 53.44                                                             
C 12.08  2.32  3.14                                                             
C 12.08  2.32 15.72                                                             
C 12.08  2.32 28.29                                                             
C 12.08  2.32 40.87                                                             
C 12.08  2.32 53.44                                                             
C 16.10  0.00  3.14                                                             
C 16.10  0.00 15.72                                                             
C 16.10  0.00 28.29                                                             
C 16.10  0.00 40.87                                                             
C 16.10  0.00 53.44                                                             
C  0.00 13.95  3.14                                                             
C  0.00 13.95 15.72                                                             
C  0.00 13.95 28.29                                                             
C  0.00 13.95 40.87                                                             
C  0.00 13.95 53.44                                                             
C  4.03 11.62  3.14                                                             
C  4.03 11.62 15.72                                                             
C  4.03 11.62 28.29                                                             
C  4.03 11.62 40.87                                                             
C  4.03 11.62 53.44                                                             
C  8.05  9.30  3.14                                                             
C  8.05  9.30 15.72                                                             
C  8.05  9.30 28.29                                                             
C  8.05  9.30 40.87                                                             
C  8.05  9.30 53.44                                                             
C 12.08  6.97  3.14                                                             
C 12.08  6.97 15.72                                                             
C 12.08  6.97 28.29                                                             
C 12.08  6.97 40.87                                                             
C 12.08  6.97 53.44                                                             
C 16.10  4.65  3.14                                                             
C 16.10  4.65 15.72                                                             
C 16.10  4.65 28.29                                                             
C 16.10  4.65 40.87                                                             
C 16.10  4.65 53.44                                                             
C 20.13  2.32  3.14                                                             
C 20.13  2.32 15.72                                                             
C 20.13  2.32 28.29                                                             
C 20.13  2.32 40.87                                                             
C 20.13  2.32 53.44                                                             
C 24.16  0.00  3.14                                                             
C 24.16  0.00 15.72                                                             
C 24.16  0.00 28.29                                                             
C 24.16  0.00 40.87                                                             
C 24.16  0.00 53.44                                                             
C  4.03 16.27  3.14                                                             
C  4.03 16.27 15.72                                                             
C  4.03 16.27 28.29                                                             
C  4.03 16.27 40.87                                                             
C  4.03 16.27 53.44                                                             
C  8.05 13.95  3.14                                                             
C  8.05 13.95 15.72                                                             
C  8.05 13.95 28.29                                                             
C  8.05 13.95 40.87                                                             
C  8.05 13.95 53.44                                                             
C 12.08 11.62  3.14                                                             
C 12.08 11.62 15.72                                                             
C 12.08 11.62 28.29                                                             
C 12.08 11.62 40.87                                                             
C 12.08 11.62 53.44                                                             
C 16.10  9.30  3.14                                                             
C 16.10  9.30 15.72                                                             
C 16.10  9.30 28.29                                                             
C 16.10  9.30 40.87                                                             
C 16.10  9.30 53.44                                                             
C 20.13  6.97  3.14                                                             
C 20.13  6.97 15.72                                                             
C 20.13  6.97 28.29                                                             
C 20.13  6.97 40.87                                                             
C 20.13  6.97 53.44                                                             
C 24.16  4.65  3.14                                                             
C 24.16  4.65 15.72                                                             
C 24.16  4.65 28.29                                                             
C 24.16  4.65 40.87                                                             
C 24.16  4.65 53.44                                                             
C 28.18  2.32  3.14                                                             
C 28.18  2.32 15.72                                                             
C 28.18  2.32 28.29                                                             
C 28.18  2.32 40.87                                                             
C 28.18  2.32 53.44                                                             
C 12.08 16.27  3.14                                                             
C 12.08 16.27 15.72                                                             
C 12.08 16.27 28.29                                                             
C 12.08 16.27 40.87                                                             
C 12.08 16.27 53.44                                                             
C 16.10 13.95  3.14                                                             
C 16.10 13.95 15.72                                                             
C 16.10 13.95 28.29                                                             
C 16.10 13.95 40.87                                                             
C 16.10 13.95 53.44                                                             
C 20.13 11.62  3.14                                                             
C 20.13 11.62 15.72                                                             
C 20.13 11.62 28.29                                                             
C 20.13 11.62 40.87                                                             
C 20.13 11.62 53.44                                                             
C 24.16  9.30  3.14                                                             
C 24.16  9.30 15.72                                                             
C 24.16  9.30 28.29                                                             
C 24.16  9.30 40.87                                                             
C 24.16  9.30 53.44                                                             
C 28.18  6.97  3.14                                                             
C 28.18  6.97 15.72                                                             
C 28.18  6.97 28.29                                                             
C 28.18  6.97 40.87                                                             
C 28.18  6.97 53.44                                                             
C 20.13 16.27  3.14                                                             
C 20.13 16.27 15.72                                                             
C 20.13 16.27 28.29                                                             
C 20.13 16.27 40.87                                                             
C 20.13 16.27 53.44                                                             
C 24.16 13.95  3.14                                                             
C 24.16 13.95 15.72                                                             
C 24.16 13.95 28.29                                                             
C 24.16 13.95 40.87                                                             
C 24.16 13.95 53.44                                                             
C 28.18 11.62  3.14                                                             
C 28.18 11.62 15.72                                                             
C 28.18 11.62 28.29                                                             
C 28.18 11.62 40.87                                                             
C 28.18 11.62 53.44                                                             
C 28.18 16.27  3.14                                                             
C 28.18 16.27 15.72                                                             
C 28.18 16.27 28.29                                                             
C 28.18 16.27 40.87                                                             
C 28.18 16.27 53.44                                                             
C  0.00  0.00  9.43                                                             
C  0.00  0.00 22.01                                                             
C  0.00  0.00 34.58                                                             
C  0.00  0.00 47.16                                                             
C  0.00  0.00 59.73                                                             
C  0.00  4.65  9.43                                                             
C  0.00  4.65 22.01                                                             
C  0.00  4.65 34.58                                                             
C  0.00  4.65 47.16                                                             
C  0.00  4.65 59.73                                                             
C  4.03  2.32  9.43                                                             
C  4.03  2.32 22.01                                                             
C  4.03  2.32 34.58                                                             
C  4.03  2.32 47.16                                                             
C  4.03  2.32 59.73                                                             
C  8.05  0.00  9.43                                                             
C  8.05  0.00 22.01                                                             
C  8.05  0.00 34.58                                                             
C  8.05  0.00 47.16                                                             
C  8.05  0.00 59.73                                                             
C  0.00  9.30  9.43                                                             
C  0.00  9.30 22.01                                                             
C  0.00  9.30 34.58                                                             
C  0.00  9.30 47.16                                                             
C  0.00  9.30 59.73                                                             
C  4.03  6.97  9.43                                                             
C  4.03  6.97 22.01                                                             
C  4.03  6.97 34.58                                                             
C  4.03  6.97 47.16                                                             
C  4.03  6.97 59.73                                                             
C  8.05  4.65  9.43                                                             
C  8.05  4.65 22.01                                                             
C  8.05  4.65 34.58                                                             
C  8.05  4.65 47.16                                                             
C  8.05  4.65 59.73                                                             
C 12.08  2.32  9.43                                                             
C 12.08  2.32 22.01                                                             
C 12.08  2.32 34.58                                                             
C 12.08  2.32 47.16                                                             
C 12.08  2.32 59.73                                                             
C 16.10  0.00  9.43                                                             
C 16.10  0.00 22.01                                                             
C 16.10  0.00 34.58                                                             
C 16.10  0.00 47.16                                                             
C 16.10  0.00 59.73                                                             
C  0.00 13.95  9.43                                                             
C  0.00 13.95 22.01                                                             
C  0.00 13.95 34.58                                                             
C  0.00 13.95 47.16                                                             
C  0.00 13.95 59.73                                                             
C  4.03 11.62  9.43                                                             
C  4.03 11.62 22.01                                                             
C  4.03 11.62 34.58                                                             
C  4.03 11.62 47.16                                                             
C  4.03 11.62 59.73                                                             
C  8.05  9.30  9.43                                                             
C  8.05  9.30 22.01                                                             
C  8.05  9.30 34.58                                                             
C  8.05  9.30 47.16                                                             
C  8.05  9.30 59.73                                                             
C 12.08  6.97  9.43                                                             
C 12.08  6.97 22.01                                                             
C 12.08  6.97 34.58                                                             
C 12.08  6.97 47.16                                                             
C 12.08  6.97 59.73                                                             
C 16.10  4.65  9.43                                                             
C 16.10  4.65 22.01                                                             
C 16.10  4.65 34.58                                                             
C 16.10  4.65 47.16                                                             
C 16.10  4.65 59.73                                                             
C 20.13  2.32  9.43                                                             
C 20.13  2.32 22.01                                                             
C 20.13  2.32 34.58                                                             
C 20.13  2.32 47.16                                                             
C 20.13  2.32 59.73                                                             
C 24.16  0.00  9.43                                                             
C 24.16  0.00 22.01                                                             
C 24.16  0.00 34.58                                                             
C 24.16  0.00 47.16                                                             
C 24.16  0.00 59.73                                                             
C  4.03 16.27  9.43                                                             
C  4.03 16.27 22.01                                                             
C  4.03 16.27 34.58                                                             
C  4.03 16.27 47.16                                                             
C  4.03 16.27 59.73                                                             
C  8.05 13.95  9.43                                                             
C  8.05 13.95 22.01                                                             
C  8.05 13.95 34.58                                                             
C  8.05 13.95 47.16                                                             
C  8.05 13.95 59.73                                                             
C 12.08 11.62  9.43                                                             
C 12.08 11.62 22.01                                                             
C 12.08 11.62 34.58                                                             
C 12.08 11.62 47.16                                                             
C 12.08 11.62 59.73                                                             
C 16.10  9.30  9.43                                                             
C 16.10  9.30 22.01                                                             
C 16.10  9.30 34.58                                                             
C 16.10  9.30 47.16                                                             
C 16.10  9.30 59.73                                                             
C 20.13  6.97  9.43                                                             
C 20.13  6.97 22.01                                                             
C 20.13  6.97 34.58                                                             
C 20.13  6.97 47.16                                                             
C 20.13  6.97 59.73                                                             
C 24.16  4.65  9.43                                                             
C 24.16  4.65 22.01                                                             
C 24.16  4.65 34.58                                                             
C 24.16  4.65 47.16                                                             
C 24.16  4.65 59.73                                                             
C 28.18  2.32  9.43                                                             
C 28.18  2.32 22.01                                                             
C 28.18  2.32 34.58                                                             
C 28.18  2.32 47.16                                                             
C 28.18  2.32 59.73                                                             
C 12.08 16.27  9.43                                                             
C 12.08 16.27 22.01                                                             
C 12.08 16.27 34.58                                                             
C 12.08 16.27 47.16                                                             
C 12.08 16.27 59.73                                                             
C 16.10 13.95  9.43                                                             
C 16.10 13.95 22.01                                                             
C 16.10 13.95 34.58                                                             
C 16.10 13.95 47.16                                                             
C 16.10 13.95 59.73                                                             
C 20.13 11.62  9.43                                                             
C 20.13 11.62 22.01                                                             
C 20.13 11.62 34.58                                                             
C 20.13 11.62 47.16                                                             
C 20.13 11.62 59.73                                                             
C 24.16  9.30  9.43                                                             
C 24.16  9.30 22.01                                                             
C 24.16  9.30 34.58                                                             
C 24.16  9.30 47.16                                                             
C 24.16  9.30 59.73                                                             
C 28.18  6.97  9.43                                                             
C 28.18  6.97 22.01                                                             
C 28.18  6.97 34.58                                                             
C 28.18  6.97 47.16                                                             
C 28.18  6.97 59.73                                                             
C 20.13 16.27  9.43                                                             
C 20.13 16.27 22.01                                                             
C 20.13 16.27 34.58                                                             
C 20.13 16.27 47.16                                                             
C 20.13 16.27 59.73                                                             
C 24.16 13.95  9.43                                                             
C 24.16 13.95 22.01                                                             
C 24.16 13.95 34.58                                                             
C 24.16 13.95 47.16                                                             
C 24.16 13.95 59.73                                                             
C 28.18 11.62  9.43                                                             
C 28.18 11.62 22.01                                                             
C 28.18 11.62 34.58                                                             
C 28.18 11.62 47.16                                                             
C 28.18 11.62 59.73                                                             
C 28.18 16.27  9.43                                                             
C 28.18 16.27 22.01                                                             
C 28.18 16.27 34.58                                                             
C 28.18 16.27 47.16                                                             
C 28.18 16.27 59.73                                                             
C  1.34  2.32  3.14                                                             
C  1.34  2.32 15.72                                                             
C  1.34  2.32 28.29                                                             
C  1.34  2.32 40.87                                                             
C  1.34  2.32 53.44                                                             
C  5.37  0.00  3.14                                                             
C  5.37  0.00 15.72                                                             
C  5.37  0.00 28.29                                                             
C  5.37  0.00 40.87                                                             
C  5.37  0.00 53.44                                                             
C  1.34  6.97  3.14                                                             
C  1.34  6.97 15.72                                                             
C  1.34  6.97 28.29                                                             
C  1.34  6.97 40.87                                                             
C  1.34  6.97 53.44                                                             
C  5.37  4.65  3.14                                                             
C  5.37  4.65 15.72                                                             
C  5.37  4.65 28.29                                                             
C  5.37  4.65 40.87                                                             
C  5.37  4.65 53.44                                                             
C  9.39  2.32  3.14                                                             
C  9.39  2.32 15.72                                                             
C  9.39  2.32 28.29                                                             
C  9.39  2.32 40.87                                                             
C  9.39  2.32 53.44                                                             
C 13.42  0.00  3.14                                                             
C 13.42  0.00 15.72                                                             
C 13.42  0.00 28.29                                                             
C 13.42  0.00 40.87                                                             
C 13.42  0.00 53.44                                                             
C  1.34 11.62  3.14                                                             
C  1.34 11.62 15.72                                                             
C  1.34 11.62 28.29                                                             
C  1.34 11.62 40.87                                                             
C  1.34 11.62 53.44                                                             
C  5.37  9.30  3.14                                                             
C  5.37  9.30 15.72                                                             
C  5.37  9.30 28.29                                                             
C  5.37  9.30 40.87                                                             
C  5.37  9.30 53.44                                                             
C  9.39  6.97  3.14                                                             
C  9.39  6.97 15.72                                                             
C  9.39  6.97 28.29                                                             
C  9.39  6.97 40.87                                                             
C  9.39  6.97 53.44                                                             
C 13.42  4.65  3.14                                                             
C 13.42  4.65 15.72                                                             
C 13.42  4.65 28.29                                                             
C 13.42  4.65 40.87                                                             
C 13.42  4.65 53.44                                                             
C 17.45  2.32  3.14                                                             
C 17.45  2.32 15.72                                                             
C 17.45  2.32 28.29                                                             
C 17.45  2.32 40.87                                                             
C 17.45  2.32 53.44                                                             
C 21.47  0.00  3.14                                                             
C 21.47  0.00 15.72                                                             
C 21.47  0.00 28.29                                                             
C 21.47  0.00 40.87                                                             
C 21.47  0.00 53.44                                                             
C  1.34 16.27  3.14                                                             
C  1.34 16.27 15.72                                                             
C  1.34 16.27 28.29                                                             
C  1.34 16.27 40.87                                                             
C  1.34 16.27 53.44                                                             
C  5.37 13.95  3.14                                                             
C  5.37 13.95 15.72                                                             
C  5.37 13.95 28.29                                                             
C  5.37 13.95 40.87                                                             
C  5.37 13.95 53.44                                                             
C  9.39 11.62  3.14                                                             
C  9.39 11.62 15.72                                                             
C  9.39 11.62 28.29                                                             
C  9.39 11.62 40.87                                                             
C  9.39 11.62 53.44                                                             
C 13.42  9.30  3.14                                                             
C 13.42  9.30 15.72                                                             
C 13.42  9.30 28.29                                                             
C 13.42  9.30 40.87                                                             
C 13.42  9.30 53.44                                                             
C 17.45  6.97  3.14                                                             
C 17.45  6.97 15.72                                                             
C 17.45  6.97 28.29                                                             
C 17.45  6.97 40.87                                                             
C 17.45  6.97 53.44                                                             
C 21.47  4.65  3.14                                                             
C 21.47  4.65 15.72                                                             
C 21.47  4.65 28.29                                                             
C 21.47  4.65 40.87                                                             
C 21.47  4.65 53.44                                                             
C 25.50  2.32  3.14                                                             
C 25.50  2.32 15.72                                                             
C 25.50  2.32 28.29                                                             
C 25.50  2.32 40.87                                                             
C 25.50  2.32 53.44                                                             
C 29.52  0.00  3.14                                                             
C 29.52  0.00 15.72                                                             
C 29.52  0.00 28.29                                                             
C 29.52  0.00 40.87                                                             
C 29.52  0.00 53.44                                                             
C  9.39 16.27  3.14                                                             
C  9.39 16.27 15.72                                                             
C  9.39 16.27 28.29                                                             
C  9.39 16.27 40.87                                                             
C  9.39 16.27 53.44                                                             
C 13.42 13.95  3.14                                                             
C 13.42 13.95 15.72                                                             
C 13.42 13.95 28.29                                                             
C 13.42 13.95 40.87                                                             
C 13.42 13.95 53.44                                                             
C 17.45 11.62  3.14                                                             
C 17.45 11.62 15.72                                                             
C 17.45 11.62 28.29                                                             
C 17.45 11.62 40.87                                                             
C 17.45 11.62 53.44                                                             
C 21.47  9.30  3.14                                                             
C 21.47  9.30 15.72                                                             
C 21.47  9.30 28.29                                                             
C 21.47  9.30 40.87                                                             
C 21.47  9.30 53.44                                                             
C 25.50  6.97  3.14                                                             
C 25.50  6.97 15.72                                                             
C 25.50  6.97 28.29                                                             
C 25.50  6.97 40.87                                                             
C 25.50  6.97 53.44                                                             
C 29.52  4.65  3.14                                                             
C 29.52  4.65 15.72                                                             
C 29.52  4.65 28.29                                                             
C 29.52  4.65 40.87                                                             
C 29.52  4.65 53.44                                                             
C 17.45 16.27  3.14                                                             
C 17.45 16.27 15.72                                                             
C 17.45 16.27 28.29                                                             
C 17.45 16.27 40.87                                                             
C 17.45 16.27 53.44                                                             
C 21.47 13.95  3.14                                                             
C 21.47 13.95 15.72                                                             
C 21.47 13.95 28.29                                                             
C 21.47 13.95 40.87                                                             
C 21.47 13.95 53.44                                                             
C 25.50 11.62  3.14                                                             
C 25.50 11.62 15.72                                                             
C 25.50 11.62 28.29                                                             
C 25.50 11.62 40.87                                                             
C 25.50 11.62 53.44                                                             
C 29.52  9.30  3.14                                                             
C 29.52  9.30 15.72                                                             
C 29.52  9.30 28.29                                                             
C 29.52  9.30 40.87                                                             
C 29.52  9.30 53.44                                                             
C 25.50 16.27  3.14                                                             
C 25.50 16.27 15.72                                                             
C 25.50 16.27 28.29                                                             
C 25.50 16.27 40.87                                                             
C 25.50 16.27 53.44                                                             
C 29.52 13.95  3.14                                                             
C 29.52 13.95 15.72                                                             
C 29.52 13.95 28.29                                                             
C 29.52 13.95 40.87                                                             
C 29.52 13.95 53.44                                                             
C  2.68  0.00  9.43                                                             
C  2.68  0.00 22.01                                                             
C  2.68  0.00 34.58                                                             
C  2.68  0.00 47.16                                                             
C  2.68  0.00 59.73                                                             
C  2.68  4.65  9.43                                                             
C  2.68  4.65 22.01                                                             
C  2.68  4.65 34.58                                                             
C  2.68  4.65 47.16                                                             
C  2.68  4.65 59.73                                                             
C  6.71  2.32  9.43                                                             
C  6.71  2.32 22.01                                                             
C  6.71  2.32 34.58                                                             
C  6.71  2.32 47.16                                                             
C  6.71  2.32 59.73                                                             
C 10.74  0.00  9.43                                                             
C 10.74  0.00 22.01                                                             
C 10.74  0.00 34.58                                                             
C 10.74  0.00 47.16                                                             
C 10.74  0.00 59.73                                                             
C  2.68  9.30  9.43                                                             
C  2.68  9.30 22.01                                                             
C  2.68  9.30 34.58                                                             
C  2.68  9.30 47.16                                                             
C  2.68  9.30 59.73                                                             
C  6.71  6.97  9.43                                                             
C  6.71  6.97 22.01                                                             
C  6.71  6.97 34.58                                                             
C  6.71  6.97 47.16                                                             
C  6.71  6.97 59.73                                                             
C 10.74  4.65  9.43                                                             
C 10.74  4.65 22.01                                                             
C 10.74  4.65 34.58                                                             
C 10.74  4.65 47.16                                                             
C 10.74  4.65 59.73                                                             
C 14.76  2.32  9.43                                                             
C 14.76  2.32 22.01                                                             
C 14.76  2.32 34.58                                                             
C 14.76  2.32 47.16                                                             
C 14.76  2.32 59.73                                                             
C 18.79  0.00  9.43                                                             
C 18.79  0.00 22.01                                                             
C 18.79  0.00 34.58                                                             
C 18.79  0.00 47.16                                                             
C 18.79  0.00 59.73                                                             
C  2.68 13.95  9.43                                                             
C  2.68 13.95 22.01                                                             
C  2.68 13.95 34.58                                                             
C  2.68 13.95 47.16                                                             
C  2.68 13.95 59.73                                                             
C  6.71 11.62  9.43                                                             
C  6.71 11.62 22.01                                                             
C  6.71 11.62 34.58                                                             
C  6.71 11.62 47.16                                                             
C  6.71 11.62 59.73                                                             
C 10.74  9.30  9.43                                                             
C 10.74  9.30 22.01                                                             
C 10.74  9.30 34.58                                                             
C 10.74  9.30 47.16                                                             
C 10.74  9.30 59.73                                                             
C 14.76  6.97  9.43                                                             
C 14.76  6.97 22.01                                                             
C 14.76  6.97 34.58                                                             
C 14.76  6.97 47.16                                                             
C 14.76  6.97 59.73                                                             
C 18.79  4.65  9.43                                                             
C 18.79  4.65 22.01                                                             
C 18.79  4.65 34.58                                                             
C 18.79  4.65 47.16                                                             
C 18.79  4.65 59.73                                                             
C 22.81  2.32  9.43                                                             
C 22.81  2.32 22.01                                                             
C 22.81  2.32 34.58                                                             
C 22.81  2.32 47.16                                                             
C 22.81  2.32 59.73                                                             
C 26.84  0.00  9.43                                                             
C 26.84  0.00 22.01                                                             
C 26.84  0.00 34.58                                                             
C 26.84  0.00 47.16                                                             
C 26.84  0.00 59.73                                                             
C  6.71 16.27  9.43                                                             
C  6.71 16.27 22.01                                                             
C  6.71 16.27 34.58                                                             
C  6.71 16.27 47.16                                                             
C  6.71 16.27 59.73                                                             
C 10.74 13.95  9.43                                                             
C 10.74 13.95 22.01                                                             
C 10.74 13.95 34.58                                                             
C 10.74 13.95 47.16                                                             
C 10.74 13.95 59.73                                                             
C 14.76 11.62  9.43                                                             
C 14.76 11.62 22.01                                                             
C 14.76 11.62 34.58                                                             
C 14.76 11.62 47.16                                                             
C 14.76 11.62 59.73                                                             
C 18.79  9.30  9.43                                                             
C 18.79  9.30 22.01                                                             
C 18.79  9.30 34.58                                                             
C 18.79  9.30 47.16                                                             
C 18.79  9.30 59.73                                                             
C 22.81  6.97  9.43                                                             
C 22.81  6.97 22.01                                                             
C 22.81  6.97 34.58                                                             
C 22.81  6.97 47.16                                                             
C 22.81  6.97 59.73                                                             
C 26.84  4.65  9.43                                                             
C 26.84  4.65 22.01                                                             
C 26.84  4.65 34.58                                                             
C 26.84  4.65 47.16                                                             
C 26.84  4.65 59.73                                                             
C 30.86  2.32  9.43                                                             
C 30.86  2.32 22.01                                                             
C 30.86  2.32 34.58                                                             
C 30.86  2.32 47.16                                                             
C 30.86  2.32 59.73                                                             
C 14.76 16.27  9.43                                                             
C 14.76 16.27 22.01                                                             
C 14.76 16.27 34.58                                                             
C 14.76 16.27 47.16                                                             
C 14.76 16.27 59.73                                                             
C 18.79 13.95  9.43                                                             
C 18.79 13.95 22.01                                                             
C 18.79 13.95 34.58                                                             
C 18.79 13.95 47.16                                                             
C 18.79 13.95 59.73                                                             
C 22.81 11.62  9.43                                                             
C 22.81 11.62 22.01                                                             
C 22.81 11.62 34.58                                                             
C 22.81 11.62 47.16                                                             
C 22.81 11.62 59.73                                                             
C 26.84  9.30  9.43                                                             
C 26.84  9.30 22.01                                                             
C 26.84  9.30 34.58                                                             
C 26.84  9.30 47.16                                                             
C 26.84  9.30 59.73                                                             
C 30.86  6.97  9.43                                                             
C 30.86  6.97 22.01                                                             
C 30.86  6.97 34.58                                                             
C 30.86  6.97 47.16                                                             
C 30.86  6.97 59.73                                                             
C 22.81 16.27  9.43                                                             
C 22.81 16.27 22.01                                                             
C 22.81 16.27 34.58                                                             
C 22.81 16.27 47.16                                                             
C 22.81 16.27 59.73                                                             
C 26.84 13.95  9.43                                                             
C 26.84 13.95 22.01                                                             
C 26.84 13.95 34.58                                                             
C 26.84 13.95 47.16                                                             
C 26.84 13.95 59.73                                                             
C 30.86 11.62  9.43                                                             
C 30.86 11.62 22.01                                                             
C 30.86 11.62 34.58                                                             
C 30.86 11.62 47.16                                                             
C 30.86 11.62 59.73                                                             
C 30.86 16.27  9.43                                                             
C 30.86 16.27 22.01                                                             
C 30.86 16.27 34.58                                                             
C 30.86 16.27 47.16                                                             
C 30.86 16.27 59.73                                                             
%ENDBLOCK POSITIONS_ABS                                                         

--------------------------------------------------------------------------------
-------------------------------- END INPUT FILE --------------------------------
--------------------------------------------------------------------------------


 
<<<<<<<<<<<<<<<<<<<<<<<<<<<<<<<<< Full system >>>>>>>>>>>>>>>>>>>>>>>>>>>>>>>>>>
<<<<<<<<<<<<<<<<<<<<<<<<<<< PAW Dataset information >>>>>>>>>>>>>>>>>>>>>>>>>>>
File: ~/pp/paw/c_pbe_abinit.paw; rc = 1.25 bohr; shape type =  3; rshape = 1.25 bohr;
  Atomic number:  6;  ionic charge:  4.000000
    Partial Wave 1: l = 0
    Partial Wave 2: l = 0
    Partial Wave 3: l = 1
    Partial Wave 4: l = 1
  Core charge supplied for Nonlinear Core Corrections
<<<<<<<<<<<<<<<<<<<<<<<<<<<<<<<<<<<<<<< >>>>>>>>>>>>>>>>>>>>>>>>>>>>>>>>>>>>>>>

-------------------------- Atom counting information ---------------------------
Symbol    Natoms    Nngwfs    Nprojs
  C        640      2560      5120
.......   ......    ......    ......
Totals:    640      2560      5120
--------------------------------------------------------------------------------

=============================== PSINC grid sizes ===============================
                      Simulation cell:   63 x  35 x 124
                              FFT-box:   63 x  35 x 117
                                  PPD:    7 x   5 x   1
Grid space d1=  0.511269841270a0 (KE cutoff=  29.06054Eh = 790.77748eV)
Grid space d2=  0.531142857143a0 (KE cutoff=  26.92659Eh = 732.70972eV)
Grid space d3=  0.507016129032a0 (KE cutoff=  29.55020Eh = 804.10191eV)
================================================================================
  
WARNING in cell_grid_distribute:
Average of less than one 23-slab per node, so workload cannot be
equally balanced between nodes.

********************* Fourier parallelisation information **********************
       Coarse grid (whole simulation cell) dimensions:     63    35   124
          Real-space ('12') slabs/node (min max mean):      3     4     3
         Recip-space ('23') slabs/node (min max mean):      0     1     0
********************************************************************************

********************* Fourier parallelisation information **********************
       Double grid (whole simulation cell) dimensions:    126    70   248
          Real-space ('12') slabs/node (min max mean):      6     7     6
         Recip-space ('23') slabs/node (min max mean):      1     2     1
********************************************************************************

Atom SCF Calculation for C  : Z (AE atom) =   6 : Z (PS atom) =   4
Config String: 2s2 2p2
Orbitals (num,occ):  2     2.00 2.00
Orbitals   (num,l):  2        0    1
Real-space Grid (nr,dr,rmax): 1293    0.0069659443    9.0000000000
Spherical Bessel Basis (nsws,lmax,cutoff):   37    2  161.4736382572
Confining potential (l,width,scale):  0    3.0000000000  100.0000000000
Confining potential (l,width,scale):  1    3.0000000000  100.0000000000
  1         -5.4129360987   -1.2444937266    4.5135257941   -1.5420271367
  2         -5.3444202281   -1.3377187790    4.4131101426   -1.5071921700
  3         -5.3525226456   -1.3566567794    4.3924752240   -1.5004938544
  4         -5.3561013121   -1.3623552809    4.3862114699   -1.4986199617
  5         -5.3580093800   -1.3653574582    4.3828991843   -1.4976654093
  6         -5.3590276761   -1.3669475005    4.3811409016   -1.4971696795
  7         -5.3595688314   -1.3677934914    4.3802040659   -1.4969088858
  8         -5.3598556216   -1.3682449178    4.3797036984   -1.4967706290
  9         -5.3600074081   -1.3684862338    4.3794360452   -1.4966970063
 10         -5.3600877081   -1.3686153812    4.3792927313   -1.4966576988
 11         -5.3601301919   -1.3686845537    4.3792159394   -1.4966366788
 12         -5.3601526758   -1.3687216261    4.3791747687   -1.4966254262
 13         -5.3601645804   -1.3687415049    4.3791526850   -1.4966193980
 14         -5.3601708871   -1.3687521691    4.3791408341   -1.4966161667
 15         -5.3601742301   -1.3687578926    4.3791344719   -1.4966144337
 16         -5.3601760032   -1.3687609656    4.3791310549   -1.4966135039
 17         -5.3601769442   -1.3687626162    4.3791292190   -1.4966130048
 18         -5.3601774440   -1.3687635032    4.3791282322   -1.4966127369
 19         -5.3601777096   -1.3687639799    4.3791277016   -1.4966125929
 20         -5.3601778508   -1.3687642363    4.3791274162   -1.4966125155
 21         -5.3601779259   -1.3687643743    4.3791272626   -1.4966124740
Atom SCF converged after  21 iterations to a total energy of     -5.36017793

Determining parallel strategy ...
... using space-filling curve
... NGWF load balancing: max     64;  min     64;  average     64
... Projector load balancing: max    128;  min    128;  average    128
... done
Calculating Ewald energy ...
              Ewald: real-space energy =    9505.276468
        Ewald: reciprocal-space energy =       0.077735
         Ewald: (sum_charge)**2 Energy =   11345.372302
         Ewald: (sum_charge**2) Energy =     896.930434
                          Ewald Energy =   -2736.948535
Basis initialisation ...... NGWF spheres initialised
... Projector spheres initialised
... NGWF tight boxes initialised
... Projector tight boxes initialised
... Tight-boxes gathered
... NGWF basis size (local,global):     695092  27900064
... PAW projector initialisation
... done

============================= Charge Augmentation ==============================
                           Aug box size:   11 x  11 x  11
================================================================================

========================== Sparse matrix information ===========================
                        Overlap matrix filling:  44.38%
                        Density kernel filling: 100.00%
              NGWF-Proj overlap matrix filling:  13.12%
                    Aug Overlap matrix filling:  47.81%
                    Hamiltonian matrix filling:  47.81%
                  NGWF diagonal matrix filling:   0.16%
                             KS matrix filling: 100.00% 
                           KSKS matrix filling: 100.00% 
================================================================================

Sparse matrix initialisation ... done
NGWF initialisation ...... done
============ Calculation of NGWF S^-1 using Hotelling algorithm ================ 
         Iteration  |  Frobenius norm and Maximum abs value    (of I-S*S_n^-1)   
               1       0.49164682E+02     0.97742467E+00
               2       0.48007822E+02     0.95663223E+00
               3       0.46250722E+02     0.91945321E+00
               4       0.43942974E+02     0.85808494E+00
               5       0.41162822E+02     0.76658643E+00
               6       0.37898335E+02     0.68660373E+00
               7       0.34439696E+02     0.63804109E+00
               8       0.31156021E+02     0.59820576E+00
               9       0.27766572E+02     0.55787781E+00
              10       0.23568413E+02     0.49666092E+00
              11       0.18055164E+02     0.39716752E+00
              12       0.11432611E+02     0.25882223E+00
              13       0.51854801E+01     0.11608806E+00
              14       0.12697445E+01     0.26409855E-01
              15       0.90520483E-01     0.16607643E-02
              16       0.56971634E-03     0.82993636E-05
              17       0.33202444E-07     0.30651126E-09
              18       0.85660344E-13     0.48849813E-14
================================================================================
Calculating core density ...
================================= Core Density =================================
               Core den box size:   21 x  21 x  21
================================================================================
 ... done
Up spin density kernel initialisation ...... done

Writing density kernel to file "3.3271687999999995_GO_manual_4x64graphite.dkn" ... done

>>> Optimising kernel for current NGWFs:

--------------------------- Ensemble-DFT optimisation --------------------------
Running ScaLAPACK on   40 processor(s).

--------------------------------------------------------------------------------
  Iter                              Commutator    Free_energy(A=E-TS)     DeltaA
#    0                          0.000041131869   -3618.58041366063117  -3.62E+03

Step                       =       0.381966011250
Energy                     =   -3618.580381642367
Entropy (-TS)              =      -0.000032018822
Free energy (A=E-TS)       =   -3618.580413660631
Est. 0K Energy 0.5*(E+A)   =   -3618.580397651499
Residual Non-orthogonality =       0.000000000000
Residual N_electrons       =       0.000000000558

Spin          Integrated_Ne            Fermi_level     Delta_Fermi_level
   1      2559.999999997472         0.220612770215              2.21E-01

                           Spin 1          
     Orb      H-eigenvalues     Occupancies
       1 |    -0.5058570430    1.0000000000 | 
                          ------
    1276 |     0.1868522415    0.9999765527 | 
    1277 |     0.1874548463    0.9999716384 | 
    1278 |     0.1874791423    0.9999714199 | 
    1279 |     0.1879267324    0.9999670812 | 
    1280 |     0.1885457389    0.9999599751 | 
                 - Gap at zero temperature -
    1281 |     0.2552956706    0.0000175227 | 
    1282 |     0.2553011953    0.0000174922 | 
    1283 |     0.2554142042    0.0000168790 | 
    1284 |     0.2555131163    0.0000163599 | 
    1285 |     0.2555186942    0.0000163312 | 
                          ------
    2560 |     1.0618955110    0.0000000000 | 

                       |  Abs_value |  Threshold | Converged
     Delta_Free_energy |   3.62E+03 |   1.00E-06 |        No
     Delta_Energy      |   3.62E+03 |   1.00E-04 |        No
     Delta_Entropy     |   3.20E-05 |   1.00E-04 |       Yes
     Commutator        |   4.11E-05 |   1.00E-05 |        No
     Delta_Fermi_level |   2.21E-01 |   1.00E-03 |        No

  Line search of the free energy minimum:
  Step_type        Step             Free_energy   Predicted_free_energy
.   Initial    0.000000    -3618.58041366063117
.    Trial1    0.381966    -3618.58231023002782
.    Trial2    0.618034    -3618.58224290325097
. Quadratic    0.483215    -3618.58239735624329    -3618.58239731921594

--------------------------------------------------------------------------------
  Iter                              Commutator    Free_energy(A=E-TS)     DeltaA
#    1                          0.000021719234   -3618.58239735624329  -1.98E-03

Step                       =       0.483214519657
Energy                     =   -3618.582364854617
Entropy (-TS)              =      -0.000032501698
Free energy (A=E-TS)       =   -3618.582397356243
Est. 0K Energy 0.5*(E+A)   =   -3618.582381105431
Residual Non-orthogonality =       0.000000000000
Residual N_electrons       =       0.000000000072

Spin          Integrated_Ne            Fermi_level     Delta_Fermi_level
   1      2559.999999999674         0.220872753524              2.60E-04

                           Spin 1          
     Orb      H-eigenvalues     Occupancies
       1 |    -0.5054448500    1.0000000000 | 
                          ------
    1276 |     0.1872323584    0.9999756462 | 
    1277 |     0.1877156617    0.9999716309 | 
    1278 |     0.1877236291    0.9999715594 | 
    1279 |     0.1883320036    0.9999655359 | 
    1280 |     0.1888156840    0.9999598490 | 
                 - Gap at zero temperature -
    1281 |     0.2554773553    0.0000179614 | 
    1282 |     0.2554993486    0.0000178371 | 
    1283 |     0.2556166369    0.0000171885 | 
    1284 |     0.2556724494    0.0000168883 | 
    1285 |     0.2556817157    0.0000168389 | 
                          ------
    2560 |     1.0631490091    0.0000000000 | 

                       |  Abs_value |  Threshold | Converged
     Delta_Free_energy |   1.98E-03 |   1.00E-06 |        No
     Delta_Energy      |   1.98E-03 |   1.00E-04 |        No
     Delta_Entropy     |   4.83E-07 |   1.00E-04 |       Yes
     Commutator        |   2.17E-05 |   1.00E-05 |        No
     Delta_Fermi_level |   2.60E-04 |   1.00E-03 |       Yes

  Line search of the free energy minimum:
  Step_type        Step             Free_energy   Predicted_free_energy
.   Initial    0.000000    -3618.58239735624329
.    Trial1    0.483215    -3618.58264219134844
.    Trial2    0.680609    -3618.58206576029670
. Quadratic    0.291923    -3618.58282642467111    -3618.58282643520351

--------------------------------------------------------------------------------
  Iter                              Commutator    Free_energy(A=E-TS)     DeltaA
#    2                          0.000013589597   -3618.58282642467111  -4.29E-04

Step                       =       0.291922868968
Energy                     =   -3618.582793859082
Entropy (-TS)              =      -0.000032565376
Free energy (A=E-TS)       =   -3618.582826424671
Est. 0K Energy 0.5*(E+A)   =   -3618.582810141877
Residual Non-orthogonality =       0.000000000000
Residual N_electrons       =      -0.000000000213

Spin          Integrated_Ne            Fermi_level     Delta_Fermi_level
   1      2560.000000000963         0.220915568661              4.28E-05

                           Spin 1          
     Orb      H-eigenvalues     Occupancies
       1 |    -0.5053324930    1.0000000000 | 
                          ------
    1276 |     0.1872617316    0.9999757493 | 
    1277 |     0.1877817450    0.9999714217 | 
    1278 |     0.1877911145    0.9999713370 | 
    1279 |     0.1883558083    0.9999657421 | 
    1280 |     0.1888774682    0.9999596078 | 
                 - Gap at zero temperature -
    1281 |     0.2555202153    0.0000179611 | 
    1282 |     0.2555440873    0.0000178262 | 
    1283 |     0.2556578395    0.0000171973 | 
    1284 |     0.2557263875    0.0000168290 | 
    1285 |     0.2557357841    0.0000167792 | 
                          ------
    2560 |     1.0635077010    0.0000000000 | 

                       |  Abs_value |  Threshold | Converged
     Delta_Free_energy |   4.29E-04 |   1.00E-06 |        No
     Delta_Energy      |   4.29E-04 |   1.00E-04 |        No
     Delta_Entropy     |   6.37E-08 |   1.00E-04 |       Yes
     Commutator        |   1.36E-05 |   1.00E-05 |        No
     Delta_Fermi_level |   4.28E-05 |   1.00E-03 |       Yes

  Line search of the free energy minimum:
  Step_type        Step             Free_energy   Predicted_free_energy
.   Initial    0.000000    -3618.58282642467111
.    Trial1    0.291923    -3618.58298795497240
.    Trial2    0.562384    -3618.58285961149659
. Quadratic    0.297336    -3618.58298800888224    -3618.58298800852072

--------------------------------------------------------------------------------
  Iter                              Commutator    Free_energy(A=E-TS)     DeltaA
#    3                          0.000009449388   -3618.58298800888224  -1.62E-04

Step                       =       0.297335667469
Energy                     =   -3618.582955383494
Entropy (-TS)              =      -0.000032625281
Free energy (A=E-TS)       =   -3618.582988008882
Est. 0K Energy 0.5*(E+A)   =   -3618.582971696188
Residual Non-orthogonality =       0.000000000000
Residual N_electrons       =      -0.000000000108

Spin          Integrated_Ne            Fermi_level     Delta_Fermi_level
   1      2560.000000000488         0.220947508493              3.19E-05

                           Spin 1          
     Orb      H-eigenvalues     Occupancies
       1 |    -0.5052476442    1.0000000000 | 
                          ------
    1276 |     0.1872967016    0.9999757261 | 
    1277 |     0.1878228297    0.9999713391 | 
    1278 |     0.1878327696    0.9999712490 | 
    1279 |     0.1883893553    0.9999657247 | 
    1280 |     0.1889176938    0.9999595019 | 
                 - Gap at zero temperature -
    1281 |     0.2555466112    0.0000179926 | 
    1282 |     0.2555710959    0.0000178540 | 
    1283 |     0.2556840905    0.0000172282 | 
    1284 |     0.2557546853    0.0000168484 | 
    1285 |     0.2557641603    0.0000167981 | 
                          ------
    2560 |     1.0637744075    0.0000000000 | 

                       |  Abs_value |  Threshold | Converged
     Delta_Free_energy |   1.62E-04 |   1.00E-06 |        No
     Delta_Energy      |   1.62E-04 |   1.00E-04 |        No
     Delta_Entropy     |   5.99E-08 |   1.00E-04 |       Yes
     Commutator        |   9.45E-06 |   1.00E-05 |       Yes
     Delta_Fermi_level |   3.19E-05 |   1.00E-03 |       Yes

  Line search of the free energy minimum:
  Step_type        Step             Free_energy   Predicted_free_energy
.   Initial    0.000000    -3618.58298800888224
.    Trial1    0.297336    -3618.58306331415224
.    Trial2    0.565730    -3618.58298447917332
. Quadratic    0.279638    -3618.58306361625000    -3618.58306361697669

--------------------------------------------------------------------------------
  Iter                              Commutator    Free_energy(A=E-TS)     DeltaA
#    4                          0.000006692206   -3618.58306361625000  -7.56E-05

Step                       =       0.279638328505
Energy                     =   -3618.583030946704
Entropy (-TS)              =      -0.000032669731
[...]
 C   158 -- C   383       -0.10      5.37000
 C   157 -- C   382       -0.10      5.37000
 C   156 -- C   381       -0.10      5.37000
 C   155 -- C   355       -0.10      5.37000
 C   154 -- C   354       -0.10      5.37000
 C   153 -- C   353       -0.10      5.37000
 C   152 -- C   352       -0.10      5.37000
 C   151 -- C   351       -0.10      5.37000
 C   140 -- C   335       -0.10      5.37000
 C   139 -- C   334       -0.10      5.37000
 C   138 -- C   333       -0.10      5.37000
 C   137 -- C   332       -0.10      5.37000
 C   136 -- C   331       -0.10      5.37000
 C   115 -- C   325       -0.10      5.37000
 C   114 -- C   324       -0.10      5.37000
 C   113 -- C   323       -0.10      5.37000
 C   112 -- C   322       -0.10      5.37000
 C   111 -- C   321       -0.10      5.37000
 C   219 -- C   569       -0.10      5.37202
 C   218 -- C   568       -0.10      5.37202
 C   217 -- C   567       -0.10      5.37202
 C   216 -- C   566       -0.10      5.37202
 C   250 -- C   540       -0.10      5.37202
 C   249 -- C   539       -0.10      5.37202
 C   248 -- C   538       -0.10      5.37202
 C   247 -- C   537       -0.10      5.37202
 C   246 -- C   536       -0.10      5.37202
 C   220 -- C   570       -0.10      5.37202
 C   285 -- C   580       -0.10      5.37202
 C   284 -- C   579       -0.10      5.37202
 C   283 -- C   578       -0.10      5.37202
 C   282 -- C   577       -0.10      5.37202
 C   281 -- C   576       -0.10      5.37202
 C   260 -- C   605       -0.10      5.37202
 C   259 -- C   604       -0.10      5.37202
 C   258 -- C   603       -0.10      5.37202
 C   257 -- C   602       -0.10      5.37202
 C   256 -- C   601       -0.10      5.37202
 C   220 -- C   515       -0.10      5.37202
 C   219 -- C   514       -0.10      5.37202
 C   218 -- C   513       -0.10      5.37202
 C   217 -- C   512       -0.10      5.37202
 C   216 -- C   511       -0.10      5.37202
 C   195 -- C   540       -0.10      5.37202
 C   195 -- C   500       -0.10      5.37202
 C   194 -- C   539       -0.10      5.37202
 C   194 -- C   499       -0.10      5.37202
 C   193 -- C   538       -0.10      5.37202
 C   193 -- C   498       -0.10      5.37202
 C   192 -- C   537       -0.10      5.37202
 C   192 -- C   497       -0.10      5.37202
 C   191 -- C   536       -0.10      5.37202
 C   191 -- C   496       -0.10      5.37202
 C   180 -- C   515       -0.10      5.37202
 C   179 -- C   514       -0.10      5.37202
 C   178 -- C   513       -0.10      5.37202
 C   177 -- C   512       -0.10      5.37202
 C   176 -- C   511       -0.10      5.37202
 C    11 -- C   331       -0.10      5.37202
 C   205 -- C   550       -0.10      5.37202
 C   204 -- C   549       -0.10      5.37202
 C   203 -- C   548       -0.10      5.37202
 C   202 -- C   547       -0.10      5.37202
 C   201 -- C   546       -0.10      5.37202
 C    95 -- C   425       -0.10      5.37202
 C    95 -- C   365       -0.10      5.37202
 C    94 -- C   424       -0.10      5.37202
 C    94 -- C   364       -0.10      5.37202
 C    93 -- C   423       -0.10      5.37202
 C    93 -- C   363       -0.10      5.37202
 C    92 -- C   422       -0.10      5.37202
 C    92 -- C   362       -0.10      5.37202
 C    91 -- C   421       -0.10      5.37202
 C    91 -- C   361       -0.10      5.37202
 C    40 -- C   365       -0.10      5.37202
 C    39 -- C   364       -0.10      5.37202
 C    38 -- C   363       -0.10      5.37202
 C    37 -- C   362       -0.10      5.37202
 C    36 -- C   361       -0.10      5.37202
 C    15 -- C   335       -0.10      5.37202
 C    65 -- C   395       -0.10      5.37202
 C    65 -- C   345       -0.10      5.37202
 C    64 -- C   394       -0.10      5.37202
 C    64 -- C   344       -0.10      5.37202
 C    63 -- C   393       -0.10      5.37202
 C    30 -- C   355       -0.10      5.37202
 C    63 -- C   343       -0.10      5.37202
 C    62 -- C   392       -0.10      5.37202
 C    30 -- C   325       -0.10      5.37202
 C    14 -- C   334       -0.10      5.37202
 C    62 -- C   342       -0.10      5.37202
 C    61 -- C   391       -0.10      5.37202
 C    29 -- C   354       -0.10      5.37202
 C    61 -- C   341       -0.10      5.37202
 C    29 -- C   324       -0.10      5.37202
 C   260 -- C   550       -0.10      5.37202
 C   259 -- C   549       -0.10      5.37202
 C    28 -- C   353       -0.10      5.37202
 C   258 -- C   548       -0.10      5.37202
 C   257 -- C   547       -0.10      5.37202
 C   256 -- C   546       -0.10      5.37202
 C    28 -- C   323       -0.10      5.37202
 C    27 -- C   352       -0.10      5.37202
 C    13 -- C   333       -0.10      5.37202
 C    27 -- C   322       -0.10      5.37202
 C   120 -- C   395       -0.10      5.37202
 C    26 -- C   351       -0.10      5.37202
 C   119 -- C   394       -0.10      5.37202
 C   118 -- C   393       -0.10      5.37202
 C    55 -- C   335       -0.10      5.37202
 C   117 -- C   392       -0.10      5.37202
 C    26 -- C   321       -0.10      5.37202
 C   116 -- C   391       -0.10      5.37202
 C    54 -- C   334       -0.10      5.37202
 C    12 -- C   332       -0.10      5.37202
 C    53 -- C   333       -0.10      5.37202
 C   230 -- C   580       -0.10      5.37202
 C   230 -- C   525       -0.10      5.37202
 C   229 -- C   579       -0.10      5.37202
 C   229 -- C   524       -0.10      5.37202
 C   228 -- C   578       -0.10      5.37202
 C    52 -- C   332       -0.10      5.37202
 C   228 -- C   523       -0.10      5.37202
 C   227 -- C   577       -0.10      5.37202
 C   227 -- C   522       -0.10      5.37202
 C   226 -- C   576       -0.10      5.37202
 C   226 -- C   521       -0.10      5.37202
 C    51 -- C   331       -0.10      5.37202
 C    23 -- C   478       -0.10      5.37202
 C    49 -- C   469       -0.10      5.37202
 C    48 -- C   468       -0.10      5.37202
 C    47 -- C   467       -0.10      5.37202
 C    22 -- C   477       -0.10      5.37202
 C    46 -- C   466       -0.10      5.37202
 C    21 -- C   476       -0.10      5.37202
 C    85 -- C   355       -0.10      5.37202
 C    84 -- C   354       -0.10      5.37202
 C    83 -- C   353       -0.10      5.37202
 C    82 -- C   352       -0.10      5.37202
 C    81 -- C   351       -0.10      5.37202
 C    55 -- C   385       -0.10      5.37202
 C    54 -- C   384       -0.10      5.37202
 C    25 -- C   480       -0.10      5.37202
 C    53 -- C   383       -0.10      5.37202
 C    52 -- C   382       -0.10      5.37202
 C    51 -- C   381       -0.10      5.37202
 C    24 -- C   479       -0.10      5.37202
 C    50 -- C   470       -0.10      5.37202
 C    24 -- C   449       -0.10      5.37202
 C     6 -- C   416       -0.10      5.37202
 C    23 -- C   448       -0.10      5.37202
 C    22 -- C   447       -0.10      5.37202
 C    10 -- C   470       -0.10      5.37202
 C     5 -- C   450       -0.10      5.37202
 C    21 -- C   446       -0.10      5.37202
 C    10 -- C   420       -0.10      5.37202
 C     9 -- C   469       -0.10      5.37202
 C     9 -- C   419       -0.10      5.37202
 C     8 -- C   468       -0.10      5.37202
 C     4 -- C   449       -0.10      5.37202
 C   150 -- C   440       -0.10      5.37202
 C   149 -- C   439       -0.10      5.37202
 C   148 -- C   438       -0.10      5.37202
 C   147 -- C   437       -0.10      5.37202
 C     8 -- C   418       -0.10      5.37202
 C   146 -- C   436       -0.10      5.37202
 C     2 -- C   447       -0.10      5.37202
 C   135 -- C   460       -0.10      5.37202
 C     7 -- C   467       -0.10      5.37202
 C   134 -- C   459       -0.10      5.37202
 C   133 -- C   458       -0.10      5.37202
 C   132 -- C   457       -0.10      5.37202
 C   131 -- C   456       -0.10      5.37202
 C     7 -- C   417       -0.10      5.37202
 C     1 -- C   446       -0.10      5.37202
 C     6 -- C   466       -0.10      5.37202
 C    25 -- C   450       -0.10      5.37202
 C     3 -- C   448       -0.10      5.37202
 C   106 -- C   436       -0.10      5.37202
 C   106 -- C   376       -0.10      5.37202
 C    80 -- C   410       -0.10      5.37202
 C    79 -- C   409       -0.10      5.37202
 C    78 -- C   408       -0.10      5.37202
 C    77 -- C   407       -0.10      5.37202
 C    76 -- C   406       -0.10      5.37202
 C   135 -- C   410       -0.10      5.37202
 C   134 -- C   409       -0.10      5.37202
 C   133 -- C   408       -0.10      5.37202
 C   132 -- C   407       -0.10      5.37202
 C   131 -- C   406       -0.10      5.37202
 C   110 -- C   440       -0.10      5.37202
 C   110 -- C   380       -0.10      5.37202
 C   109 -- C   439       -0.10      5.37202
 C   109 -- C   379       -0.10      5.37202
 C   108 -- C   438       -0.10      5.37202
 C   108 -- C   378       -0.10      5.37202
 C   107 -- C   437       -0.10      5.37202
 C   107 -- C   377       -0.10      5.37202
 C   215 -- C   635       -0.10      5.38000
 C   214 -- C   634       -0.10      5.38000
 C   213 -- C   633       -0.10      5.38000
 C   212 -- C   632       -0.10      5.38000
 C   211 -- C   631       -0.10      5.38000
 C   190 -- C   620       -0.10      5.38000
 C   189 -- C   619       -0.10      5.38000
 C   188 -- C   618       -0.10      5.38000
 C   187 -- C   617       -0.10      5.38000
 C   186 -- C   616       -0.10      5.38000
 C   175 -- C   595       -0.10      5.38000
 C   174 -- C   594       -0.10      5.38000
 C   173 -- C   593       -0.10      5.38000
 C   172 -- C   592       -0.10      5.38000
 C   171 -- C   591       -0.10      5.38000
 C   245 -- C   640       -0.10      5.38000
 C   244 -- C   639       -0.10      5.38000
 C   243 -- C   638       -0.10      5.38000
 C   242 -- C   637       -0.10      5.38000
 C   241 -- C   636       -0.10      5.38000
==================================================


=================== Orbital energy and occupancy information ===================

      Total number of orbitals:    2560
        Occupancy sum (kernel):    1280.000000000
   Occupancy sum (eigenvalues):    1280.000000000
                 HOMO-LUMO gap:       0.063111108 Eh
                 Mid-gap level:       0.263354294 Eh

                        Orbital | Energy (Eh) | Occupancy
                            1    -0.459961789   1.0000000
                        .......   ...........   .........
                         1271     0.226272764   0.9999884
                         1272     0.226280444   0.9999884
                         1273     0.226746565   0.9999865
                         1274     0.226754271   0.9999865
                         1275     0.230462555   0.9999565
                         1276     0.230497964   0.9999561
                         1277     0.230918559   0.9999498
                         1278     0.230953988   0.9999492
                         1279     0.231355479   0.9999424
                         1280     0.231798741   0.9999337
                        ....... -- gap at 0K -- .........
                         1281     0.294909848   0.0000333
                         1282     0.294919045   0.0000332
                         1283     0.295154482   0.0000308
                         1284     0.295163978   0.0000307
                         1285     0.295804834   0.0000252
                         1286     0.295836908   0.0000249
                         1287     0.296065207   0.0000232
                         1288     0.296097491   0.0000230
                         1289     0.296436595   0.0000206
                         1290     0.296455362   0.0000204
                        .......   ...........   .........
                         2560     1.162281703   0.0000000

================================================================================

===================== Writing canonical molecular orbitals =====================
| Orbital  Energy (eV)  Norm     |
| HOMO      6.30756468  1.000000 | Writing "3.3271687999999995_GO_manual_4x64graphite_HOMO.cube" ... done
Writing "3.3271687999999995_GO_manual_4x64graphite_HOMO.dx" ... done
| LUMO      8.02490531  1.000000 | Writing "3.3271687999999995_GO_manual_4x64graphite_LUMO.cube" ... done
Writing "3.3271687999999995_GO_manual_4x64graphite_LUMO.dx" ... done
================================================================================
 
===================== Density of States (DOS) calculation ======================
Writing "3.3271687999999995_GO_manual_4x64graphite_DOS.txt" ...  done
================================================================================
 
Writing bands to file "3.3271687999999995_GO_manual_4x64graphite.val_bands" ... done
 
================ Projected Density of States (pDOS) calculation ================
 
Constructing AM resolved functions  ...... done
Writing NGWF plot files in formats: CUBE DX ...  done
 
Performing overlap integrals ...  done
 
Computing pDOS weights ...  done
 
All bands spilling parameter =   3.84 %
Occupancy-weighted spilling parameter =   0.84 %
 
 => Outputting data for OptaDOS <=
 
Writing pDOS weights to file "3.3271687999999995_GO_manual_4x64graphite.val_pdos_bin" ... done
 
Writing band gradients to file "3.3271687999999995_GO_manual_4x64graphite.val_dome_bin" ... done
 
Writing Castep output cell file to "3.3271687999999995_GO_manual_4x64graphite-out.cell" ... done
 
 => Computing Gaussian smeared pDOS <= 
Writing "3.3271687999999995_GO_manual_4x64graphite_PDOS.txt" ...  done
 
 => Computing Occupancy-weighted Gaussian smeared pDOS <= 
Writing "3.3271687999999995_GO_manual_4x64graphite_occ_PDOS.txt" ...  done
  => Band centres: 
 S band centre of group 1:  -13.754784 eV
 P band centre of group 1:   -6.691372 eV
  Band centres done. <=
  => Integrated number of electrons in each AM band: 
 S num electrons of group 1:  571.596498
 P num electrons of group 1: 1967.017751
  Integrated number of electrons done. <=
================================================================================

------------------------------ TIMING INFORMATION ------------------------------
AVERAGE TIME:    3997.242s on     40 node(s)                                    
TOTAL TIME:      3997.242s on     40 node(s)                                    
================= AVERAGE TIMINGS FROM ALL NODES (CUMULATIVE) ==================
|| TAG                                    #calls    cpu time   %total  Gflops ||
|| work_imbalance                       :     1        0.00s   0.000%  ------ ||
|| paw_tcore_hartree_on_grid            :     1        0.01s   0.000%  ------ ||
|| paw_tcore_density                    :     1        0.01s   0.000%  ------ ||
|| paw_sphere_density_on_grid           :     1        0.01s   0.000%  ------ ||
|| sparse_set_to_garbage                :   171        0.03s   0.001%  ------ ||
|| paw_dij_hartree                      :   352        0.04s   0.001%  ------ ||
|| pseudo_make_structure_factor         :     1        0.06s   0.002%  ------ ||
|| basis_extract_function_from_box      :  1920        0.08s   0.002%  ------ ||
|| paw_species_calc_proj_prec_mat       :     1        0.12s   0.003%  ------ ||
|| paw_dataset_init                     :     1        0.15s   0.004%  ------ ||
|| density_init_guess_real              :     1        0.30s   0.008%  ------ ||
|| ngwfs_initialise_from_radial         :     2        0.67s   0.017%  ------ ||
|| restart_kernel_write                 :    16        0.82s   0.021%  ------ ||
|| sparse_init                          :     1        0.96s   0.024%  ------ ||
|| dense_normal_eigensolve              :     1        0.98s   0.025%  ------ ||
|| hartree_on_grid                      :   265        1.54s   0.039%  ------ ||
|| ewald_calculate_energy               :     1        2.86s   0.072%  ------ ||
|| projectors_init_fftbox_recip         :   151        2.96s   0.074%  ------ ||
|| fourier_apply_box_pair               :  2848        4.71s   0.118% 560.295 ||
|| basis_copy_function_to_box           : 25024        5.42s   0.136%  ------ ||
|| augmentation_screen_dij              :   270        5.91s   0.148%  ------ ||
|| sw_init                              :     1        6.73s   0.168%  ------ ||
|| sparse_embed_hotelling_invert_embed  :    29        8.91s   0.223%  ------ ||
|| ngwf_gradient_coeffs                 :    15       12.36s   0.309%  ------ ||
|| cell_grid_extract_box_real           : 10476       15.69s   0.392%  ------ ||
|| fourier_apply_cell_backward          :  8186       16.67s   0.417%  57.172 ||
|| sparse_trace                         :  3190       17.63s   0.441%  ------ ||
|| fourier_apply_cell_forward           :  7657       19.42s   0.486%  45.888 ||
|| cell_grid_deposit_box_real           : 34096       21.38s   0.535%  ------ ||
|| paw_dij_xc                           :   352       28.17s   0.705%  ------ ||
|| aug_nonlocal_mat                     :   337       40.33s   1.009%  ------ ||
|| density_fftbox_deposit_to_cell       : 16960       42.40s   1.061%  ------ ||
|| hamiltonian_energy_components        :     3       49.78s   1.245%  ------ ||
|| augmentation_density_on_grid         :   265       52.00s   1.301%  ------ ||
|| eigenstates_pdos                     :     1       53.69s   1.343%  ------ ||
|| eigenstates_calculate                :     1       58.15s   1.455%  ------ ||
|| function_ops_brappd_ketppd           :    60       63.23s   1.582%  ------ ||
|| projectors_func_ovlp_box             :    30       72.28s   1.808%  ------ ||
|| xc_energy_potential                  :   264       80.25s   2.008%  ------ ||
|| nlxc_vdw_energy                      :   528       81.09s   2.029%  ------ ||
|| properties_calculate                 :     1      104.82s   2.622%  ------ ||
|| integrals_kinetic                    :    29      106.03s   2.653%  ------ ||
|| restart_ngwfs_tightbox_output        :    14      109.49s   2.739%  ------ ||
|| dense_eigensolve                     :   232      111.24s   2.783%  ------ ||
|| potential_apply_to_ngwf_batch        :   324      126.10s   3.155%  ------ ||
|| sparse_product                       :  3225      147.53s   3.691%  ------ ||
|| basis_dot_function_with_box          : 8.234M     224.54s   5.617%  ------ ||
|| fourier_apply_box                    : 78992      245.11s   6.132% 977.598 ||
|| edft_diag_ngwf_ham                   :   231      252.74s   6.323%  ------ ||
|| projectors_gradient_batch            :    60      282.18s   7.059%  ------ ||
|| integrals_locpot_mat_els_batch       :   324      300.20s   7.510%  ------ ||
|| density_fftbox_interpolate_multiply  : 16960      329.30s   8.238%  ------ ||
|| density_batch_interp_deposit         :  1060      412.01s  10.307%  ------ ||
|| projectors_grad_precond_batch        :    60      414.09s  10.359%  ------ ||
|| integrals_locpot_dbl_grid            :    81      427.94s  10.706%  ------ ||
|| edft_apply_smearing_operator         :   231      497.23s  12.439%  ------ ||
|| basis_add_function_to_box            : 23.63M     622.05s  15.562%  ------ ||
|| ngwf_gradient_build_batch            :    60      741.66s  18.554%  ------ ||
|| density_batch_row_sums               :  1060      877.42s  21.951%  ------ ||
|| ngwf_gradient_batch                  :    60      980.68s  24.534%  ------ ||
|| ngwf_gradient_lnv                    :    15     1017.80s  25.463%  ------ ||
|| density_on_dbl_grid                  :   265     1303.61s  32.613%  ------ ||
|| hamiltonian_lhxc_calculate           :   260     1419.39s  35.509%  ------ ||
|| edft_calculate                       :    15     2337.85s  58.487%  ------ ||
|| ngwf_cg_optimise                     :     1     3871.00s  96.842%  ------ ||
|| total_time                           :     1     3997.24s 100.000%  ------ ||
================================================================================
Overhead of generating timer report: 
- 0 ms averaging over threads,
- 5 ms ensuring consistency across MPI ranks,
- 0 ms printing in order.

Job completed: 21-02-2020 17:45 (-0000)

