 +---------------------------------------------------------------+
 |                                                               |
 |        ####### #     # ####### ####### ####### ######         |
 |        #     # ##    # #          #    #       #     #        |
 |        #     # # #   # #          #    #       #     #        |
 |        #     # #  #  # #####      #    #####   ######         |
 |        #     # #   # # #          #    #       #              |
 |        #     # #    ## #          #    #       #              |
 |        ####### #     # #######    #    ####### #              |
 |                                                               |
 |        Linear-Scaling Ab Initio Total Energy Program          |
 |                                                               |
 |          Release for academic collaborators of ODG            |
 |                                             Version 6.1.3.6   |
 |                                                               |
 +---------------------------------------------------------------+
 |                                                               |
 |  Authors:                                                     |
 |  Jacek Dziedzic, Peter D. Haynes, Nicholas D. M. Hine,        |
 |  Arash A. Mostofi, Mike C. Payne and Chris-Kriton Skylaris    |
 |                                                               |
 |  Contributors:                                                |
 |  J. Aarons, L. Andrinopoulos, P. W. Avraam, R. A. Bell,       |
 |  A. Bhandari, G. A. Bramley, R. J. Charlton, S. J. Clark,     |
 |  R. J. Clements, G. C. Constantinescu, F. Corsetti,           |
 |  N. Corsini, O. Dieguez, S. M. M. Dubois, K. K. B. Duff,      |
 |  J. M. Escartin, A. Greco, H. Helal, Q. O. Hill, L. P. Lee,   |
 |  J.-H. Li, E. B. Linscott, G. Moynihan, D. D. O`Regan,        |
 |  O. K. Okan, M. J. S. Phipps, C. J. Pickard,                  |
 |  J. C. A. Prentice, M. I. J. Probert, L. E. Ratcliff,         |
 |  M. Robinson, A. Ruiz Serrano, J. S. Spencer, E. W. Tait,     |
 |  G. Teobaldi, D. Turban, V. Vitale, K. A. Wilkinson,          |
 |  C. Weber, J. C. Womack, N. Yeung and T. J. Zuehlsdorff       |
 |                                                               |
 |                                   Copyright (c) 2004-2021     |
 |                                                               |
 |  Please cite:                                                 |
 |  "The ONETEP linear-scaling density functional theory program"|
 |   J. Chem. Phys. 152(17) 174111 (2020)                        |
 |                                                               |
 |          in all publications arising from your use of ONETEP. |
 |                                                               |
 +---------------------------------------------------------------+
 |                                                               |
 |   ONETEP is based on developments described in the following  |
 |   publications:                                               |
 |                                                               |
 |  "Nonorthogonal generalized Wannier function pseudopotential  |
 |   plane-wave method".                                         |
 |   C.-K. Skylaris, A. A. Mostofi, P. D. Haynes, O. Dieguez,    |
 |   M. C. Payne.                                                |
 |   Phys. Rev. B 66 035119 (2002).                              |
 |                                                               |
 |  "Preconditioned iterative minimization for linear-scaling    |
 |   electronic structure calculations".                         |
 |   A. A. Mostofi, P. D. Haynes, C.-K. Skylaris, M. C. Payne.   |
 |   J. Chem. Phys. 119(17), pp.8842-8848 (2003).                |
 |                                                               |
 |  "Total-energy calculations on a real space grid with         |
 |   localized functions and a plane-wave basis".                |
 |   A. A. Mostofi, C.-K. Skylaris, P. D. Haynes, M. C. Payne.   |
 |   Comput. Phys. Commun. 147, pp.788-802 (2002).               |
 |                                                               |
 |  "Accurate kinetic energy evaluation in electronic structure  |
 |   calculations with localized functions on real space grids"  |
 |   C.-K. Skylaris, A. A. Mostofi, P. D. Haynes, C. J. Pickard, |
 |   M. C. Payne.                                                |
 |   Comput. Phys. Commun. 140, pp.315-322 (2001).               |
 |                                                               |
 |  "Accurate ionic forces and geometry optimization in linear-  |
 |   scaling density-functional theory with local orbitals"      |
 |   N. D. M. Hine, M. Robinson, P. D. Haynes, C.-K. Skylaris,   |
 |   M. C. Payne, and A. A. Mostofi.                             |
 |   Phys. Rev. B 83 195102 (2011).                              |
 |                                                               |
 +---------------------------------------------------------------+

Job started: 15-12-2021 08:33 (-0000)
 
Reading parameters from file "48/592nano.dat" ...... done

If your calculation crashes here, before "Checking processes and threads..."
is displayed, then your stack size is insufficient.
If so, use "ulimit -s unlimited" at runtime.
You can disable this check with "check_stack_size F".

Checking processes and threads...
   Determining the default number of threads...
      No default threads set at compilation time: defaulting to 1.
      OpenMP library call suggests 4 threads.
      Hybrid MPI-OpenMP compilation detected.
      Number of MPI processes > 1.
      OMP_NUM_THREADS environment variable present and
      its value matches the one obtained from the OpenMP library call.
      Using this value as default.
      Default threads: 4
      Default applies to threads_max and threads_num_fftboxes.
      Settings in the input file override this default.
   ... done

   Running with 160 MPI processes.
   There are 16 MPI processes running on the same node as the root process.
   Each MPI process is using: 
               1 threads for simulation cell FFTs.
               1 threads for parallel FFT box operations.
               4 threads for loops over batched FFT box operations.
               4 threads in other parallel regions.
... done

Basic input checks...
Resetting ngwf_cg_rotate to TRUE for EDFT calculations
... done

Reading geometry and species blocks from file "48/592nano.dat" ...    
  Number of PPD points along a3 set to 1.  This is 
  the default value, it may have been provided also in the input file.
... done
 Writing xyz coordinates to file "48/592nano.xyz" ... done


--------------------------------------------------------------------------------
---------------------------------- INPUT FILE ----------------------------------
--------------------------------------------------------------------------------

task : singlepoint                                                              
do_properties : true                                                            
dx_format T                                                                     
edft T                                                                          
edft_spin_fix 3                                                                 
output_detail VERBOSE                                                           
timings_level 3                                                                 
write_xyz T                                                                     
edft_update_scheme: pulay_mix                                                   
edft_ham_diis_size: 10                                                          
edft_trial_step: 0.1                                                            
xc_functional OPTPBE                                                            
cutoff_energy 830 eV                                                            
paw T                                                                           
geom_disp_tol 0.06 bohr                                                         
geom_energy_tol 6E-6 hartree                                                    
geom_force_tol 0.012 "ha/bohr"                                                  
geom_max_iter 25                                                                
EDFT_MAXIT 30                                                                   
pdos_max_l = 2                                                                  
dos_smear  0.1 eV                                                               
popn_calculate T                                                                
PDOS_PSEUDOATOMIC T                                                             
PDOS_REDUCE_SWS F                                                               
PDOS_CONSTRUCT_BASIS F                                                          
PDOS_LOWDIN T                                                                   
PDOS_ORTH_ATOM_BLOCKS F                                                         
PDOS_LCAO_OPTIMIZE F                                                            
pdos_optados_output T                                                           
homo_plot 0                                                                     
lumo_plot 0                                                                     
homo_dens_plot -1                                                               
lumo_dens_plot -1                                                               
%BLOCK SPECIES                                                                  
C C 6 4 9.0                                                                     
H H 1 1 9.0                                                                     
Li Li 3 5 9.0                                                                   
%ENDBLOCK SPECIES                                                               
%BLOCK SPECIES_POT                                                              
C "~/pp/paw/c_pbe_abinit.paw"                                                   
H "~/pp/paw/h_pbe_abinit.paw"                                                   
Li "~/pp/paw/li_pbe_abinit.paw"                                                 
%ENDBLOCK SPECIES_POT                                                           
%BLOCK SPECIES_ATOMIC_SET                                                       
C "SOLVE conf=2s2 2p2"                                                          
H "SOLVE conf=1s1"                                                              
Li "SOLVE conf=1s2 2s1 2p0"                                                     
%ENDBLOCK SPECIES_ATOMIC_SET                                                    
%BLOCK SPECIES_LDOS_GROUPS                                                      
C                                                                               
H                                                                               
Li                                                                              
%ENDBLOCK SPECIES_LDOS_GROUPS                                                   
%BLOCK LATTICE_CART                                                             
94.486315650000      0.000000000000       0.000000000000                        
0.000000000000       94.486315650000      0.000000000000                        
0.000000000000       0.000000000000       94.486315650000                       
%ENDBLOCK LATTICE_CART                                                          
%BLOCK POSITIONS_ABS                                                            
C 42.853491 41.453739 31.484524                                                 
C 38.778605 43.749059 31.620567                                                 
C 41.526130 39.135648 31.011530                                                 
C 45.554401 41.476609 31.524433                                                 
C 37.453657 41.419688 31.201618                                                 
C 37.412933 46.075165 31.767742                                                 
C 54.904121 48.564846 31.257384                                                 
C 54.891668 53.256060 31.256251                                                 
C 53.595009 46.222827 31.375579                                                 
C 38.636423 57.815407 31.869104                                                 
C 42.659280 60.196718 31.739602                                                 
C 37.317055 55.453361 31.924921                                                 
C 53.532670 55.595890 31.394174                                                 
C 45.363701 60.221346 31.707234                                                 
C 46.932506 39.166079 31.207379                                                 
C 41.482055 43.774512 31.726988                                                 
C 34.713190 46.053047 31.557528                                                 
C 50.951307 41.545664 31.250946                                                 
C 53.550121 50.902268 31.433498                                                 
C 34.674245 50.732439 31.694664                                                 
C 41.339378 57.843742 31.954952                                                 
C 38.819431 39.129345 30.819373                                                 
C 54.976044 43.919708 31.090424                                                 
C 49.582306 43.853899 31.589616                                                 
C 37.360534 50.762430 31.968467                                                 
C 49.459157 57.919457 31.713081                                                 
C 34.620862 55.419727 31.658763                                                 
C 57.597097 48.615961 30.840892                                                 
C 50.771615 60.266357 31.381380                                                 
C 57.566933 53.280003 30.770855                                                 
C 37.258442 60.129152 31.514055                                                 
C 54.836446 57.947416 31.051369                                                 
C 50.839177 55.584643 31.713607                                                 
C 46.754266 57.898210 31.873256                                                 
C 41.268437 62.499346 31.395869                                                 
C 46.677574 62.552786 31.328804                                                 
C 46.880787 43.825936 31.725916                                                 
C 50.905366 46.206007 31.631471                                                 
C 38.736389 48.427177 31.976929                                                 
C 38.687694 53.126732 32.054862                                                 
C 49.616121 39.212235 31.078246                                                 
C 33.363960 48.370240 31.495960                                                 
C 42.910605 36.815214 30.664154                                                 
C 53.642541 41.599769 30.965863                                                 
C 34.746519 41.398535 31.059000                                                 
C 33.323449 53.070132 31.477843                                                 
C 45.606031 36.826767 30.821826                                                 
C 33.387992 43.698631 31.282116                                                 
C 58.913653 50.949003 30.510887                                                 
C 53.457207 60.261131 31.042520                                                 
C 49.364491 62.568149 31.170248                                                 
C 38.573256 62.467353 31.248731                                                 
C 50.863175 50.894616 31.747904                                                 
C 42.720372 55.513422 32.088164                                                 
C 42.809572 46.126570 31.942732                                                 
C 57.672692 43.959353 30.808982                                                 
C 58.977644 46.291980 30.620206                                                 
C 33.239331 57.744244 31.443519                                                 
C 34.540806 60.089350 31.324858                                                 
C 58.868350 55.640085 30.357598                                                 
C 49.505271 53.233171 31.876595                                                 
C 45.427915 55.542908 32.043336                                                 
C 57.504698 57.965862 30.505584                                                 
C 49.539862 48.536422 31.824672                                                 
C 41.394988 53.153747 32.135077                                                 
C 42.581434 64.829260 30.982153                                                 
C 41.440166 48.458580 32.057154                                                 
C 45.513987 46.153899 31.919953                                                 
C 45.275406 64.854225 30.939214                                                 
C 37.478678 36.787152 30.217797                                                 
C 46.804262 53.210849 32.039244                                                 
C 42.768828 50.820652 32.127041                                                 
C 46.841772 48.511701 31.979426                                                 
C 41.568830 34.473465 30.105703                                                 
C 33.407639 39.077621 30.583216                                                 
C 50.982534 36.893366 30.614574                                                 
C 55.016770 39.304648 30.469784                                                 
C 30.670458 48.338035 31.057547                                                 
C 46.983123 34.499708 30.452875                                                 
C 30.643527 53.053061 30.956704                                                 
C 30.694863 43.669443 31.072410                                                 
C 45.473961 50.849047 32.084651                                                 
C 61.597264 50.963818 29.822739                                                 
C 38.885485 34.513071 29.943842                                                 
C 34.803399 36.815881 30.115465                                                 
C 37.175691 64.796654 30.758914                                                 
C 59.046349 41.640308 30.591527                                                 
C 54.750814 62.605849 30.499187                                                 
C 50.661075 64.907276 30.616572                                                 
C 61.647060 46.290284 30.075374                                                 
C 30.549860 57.706915 31.192599                                                 
C 61.542926 55.654053 29.691455                                                 
C 33.147359 62.395457 30.884329                                                 
C 41.167189 67.143108 30.560399                                                 
C 58.786455 60.326200 29.985833                                                 
C 46.594687 67.188743 30.425821                                                 
C 49.663891 34.590773 30.462307                                                 
C 29.402720 46.006309 30.926787                                                 
C 62.899715 48.636531 29.623412                                                 
C 53.679311 36.938135 30.531646                                                 
C 62.872741 53.319169 29.515389                                                 
C 57.671168 39.356625 30.434374                                                 
C 29.300725 50.679467 31.007519                                                 
C 42.992034 32.188786 29.890270                                                 
C 34.491017 64.701996 30.562901                                                 
C 38.513085 67.090328 30.592313                                                 
C 29.313434 55.352614 30.937410                                                 
C 30.721890 39.079725 30.728702                                                 
C 45.639168 32.209976 30.047071                                                 
C 29.403497 41.325321 30.957976                                                 
C 57.376071 62.615209 30.093497                                                 
C 53.377659 64.943467 30.600911                                                 
C 49.281909 67.156708 30.339632                                                 
H 37.872505 32.739704 29.538800                                                 
H 33.776950 35.048589 29.694133                                                 
C 62.995685 43.958953 30.190634                                                 
C 61.724333 41.694685 30.470745                                                 
C 62.771275 58.030871 29.325545                                                 
C 29.197187 60.030985 31.161744                                                 
C 30.449623 62.307615 31.011767                                                 
C 61.411693 60.302817 29.410413                                                 
C 42.540989 69.434092 30.116741                                                 
C 45.179099 69.439650 30.015372                                                 
H 64.905166 53.334282 29.037492                                                 
H 64.931940 48.627921 29.137607                                                 
H 50.709282 32.843130 29.961723                                                 
H 41.970168 30.403422 29.577600                                                 
H 29.704782 37.264593 30.597011                                                 
H 27.353905 45.976292 30.467701                                                 
H 37.457059 68.868129 30.332549                                                 
H 33.432771 66.469681 30.254612                                                 
H 58.726158 37.562352 30.232783                                                 
H 27.238783 55.331199 30.666682                                                 
H 46.710531 30.429408 29.921840                                                 
H 54.671495 35.254155 29.781008                                                 
H 27.320715 41.327830 30.996959                                                 
H 27.383579 50.660588 30.163386                                                 
H 58.319043 64.391903 29.514924                                                 
H 50.281418 68.908920 29.783300                                                 
H 65.071971 43.980904 29.979306                                                 
H 62.762548 39.889225 30.521035                                                 
H 54.286143 66.600412 29.692738                                                 
H 64.809195 58.043618 28.892445                                                 
H 29.390281 64.101397 30.956623                                                 
H 27.115045 59.971218 31.212647                                                 
H 41.470395 71.194467 29.822506                                                 
H 62.381386 62.110824 29.054915                                                 
H 46.207723 71.213227 29.653431                                                 
C 44.222840 39.035737 37.477847                                                 
C 36.059818 43.710453 37.434434                                                 
C 40.146241 41.388763 37.500815                                                 
C 41.521770 39.061866 37.455457                                                 
C 49.635531 39.041520 37.194477                                                 
C 37.446772 41.396840 37.349757                                                 
C 48.265280 41.396167 37.396792                                                 
C 53.694107 41.418116 37.160224                                                 
C 45.566903 41.383013 37.526372                                                 
C 52.312273 43.748479 37.154350                                                 
C 36.030155 48.379082 37.719159                                                 
C 37.396152 46.052219 37.657719                                                 
C 45.581384 36.685456 37.381942                                                 
C 35.986898 53.066742 37.911122                                                 
C 33.319444 48.365860 37.594785                                                 
C 53.634366 46.099789 36.980147                                                 
C 52.371878 39.056146 37.153014                                                 
C 33.281799 53.056688 37.856141                                                 
C 56.359170 46.131955 36.921731                                                 
C 33.353621 43.693803 37.260886                                                 
C 49.590170 43.745969 37.401558                                                 
C 37.331253 55.405718 37.939804                                                 
C 48.290273 36.690024 37.270245                                                 
C 41.485041 43.726683 37.655626                                                 
C 37.372451 50.725288 37.878582                                                 
C 35.970534 57.734921 37.858036                                                 
C 56.416374 41.425935 37.067174                                                 
C 56.316059 50.847118 36.987214                                                 
C 53.600948 50.824337 37.125989                                                 
C 53.574094 55.542883 37.274485                                                 
C 31.929444 50.703516 37.773539                                                 
C 45.447353 60.144449 37.734772                                                 
C 41.400025 57.762804 37.873226                                                 
C 57.730656 43.783219 36.882286                                                 
C 31.984513 46.011060 37.401807                                                 
C 52.203450 57.853029 37.464246                                                 
C 44.194543 43.725094 37.666586                                                 
C 48.141107 60.176980 37.671056                                                 
C 40.108361 46.058301 37.743638                                                 
C 40.030403 60.093499 37.746715                                                 
C 49.509469 57.834924 37.646758                                                 
C 52.247888 48.472250 37.076455                                                 
C 57.687070 48.500995 36.877311                                                 
C 40.050306 55.419769 37.954099                                                 
C 56.305476 55.570269 37.074255                                                 
C 52.230512 53.169690 37.360517                                                 
C 44.103751 57.787891 37.844411                                                 
C 40.179544 36.713333 37.304430                                                 
C 31.905947 55.398124 37.774428                                                 
C 44.078011 62.471736 37.603038                                                 
C 36.084205 39.047772 37.150211                                                 
C 33.260030 57.730572 37.699457                                                 
C 37.337656 60.063946 37.793830                                                 
C 57.651690 53.207017 36.961152                                                 
C 41.367733 62.432610 37.523838                                                 
C 48.234777 46.081459 37.579493                                                 
C 40.068351 50.738834 37.921529                                                 
C 48.176927 55.480110 37.747508                                                 
C 44.214577 34.294633 37.379670                                                 
C 53.766276 36.692899 37.290908                                                 
C 53.549298 60.227404 37.364318                                                 
C 49.561495 48.450196 37.474139                                                 
C 49.465685 62.537813 37.579213                                                 
C 41.417964 53.091560 37.956060                                                 
C 45.467215 55.456967 37.870145                                                 
C 49.535141 53.147503 37.640700                                                 
C 45.526389 46.076318 37.729834                                                 
C 41.446998 48.401867 37.855826                                                 
C 31.979460 41.348470 36.993996                                                 
C 37.469014 36.722400 37.184372                                                 
C 49.662702 34.259819 37.284619                                                 
C 41.513214 34.366377 37.227518                                                 
C 57.647711 57.913955 37.126711                                                 
C 57.856403 39.062747 37.097588                                                 
C 33.391365 39.053420 37.127088                                                 
C 45.407143 64.832140 37.541448                                                 
C 44.126905 53.107205 37.917511                                                 
C 48.199359 50.785583 37.714135                                                 
C 29.179817 50.675753 37.926695                                                 
C 44.155367 48.412910 37.833517                                                 
C 60.412593 48.512734 36.738369                                                 
C 52.170266 62.560230 37.455644                                                 
C 45.498827 50.767855 37.859307                                                 
C 60.471156 43.794286 36.664086                                                 
C 29.226230 45.954396 37.552123                                                 
C 56.271278 60.245234 37.285782                                                 
C 56.498778 36.703258 37.360613                                                 
C 29.147651 55.415572 37.698999                                                 
C 48.111155 64.865291 37.597070                                                 
C 60.350055 53.231058 36.792931                                                 
C 52.386718 34.346514 37.528586                                                 
C 35.983739 62.403972 37.661851                                                 
C 31.875052 60.059642 37.418200                                                 
C 40.011091 64.784295 37.250540                                                 
C 45.575923 31.978985 37.135046                                                 
C 27.816357 53.016689 37.982287                                                 
C 61.750201 46.175778 36.748505                                                 
C 27.903606 48.303271 37.988730                                                 
C 61.718099 50.889350 36.576295                                                 
C 48.277540 31.986395 37.094928                                                 
C 29.307794 41.361202 36.901147                                                 
C 33.257419 62.407133 37.635962                                                 
C 60.497764 39.151828 36.673329                                                 
C 37.326260 64.717896 37.372208                                                 
C 60.401784 57.957720 36.983359                                                 
H 36.439063 34.890808 37.251555                                                 
H 40.445751 32.563913 37.231542                                                 
C 61.783332 41.471273 36.451044                                                 
C 44.008983 67.209467 37.504086                                                 
H 32.336223 37.237608 37.143950                                                 
C 61.690587 55.595164 36.653493                                                 
C 27.954323 43.622429 37.295240                                                 
C 41.324301 67.108943 37.275396                                                 
H 57.524871 34.916849 36.972847                                                 
C 27.870313 57.740715 37.474972                                                 
C 29.212579 60.016774 37.325655                                                 
H 53.448374 32.540629 37.619968                                                 
C 53.525671 64.956689 37.655847                                                 
H 44.533003 30.176884 37.072335                                                 
H 25.731365 52.997112 37.951551                                                 
C 57.658147 62.640726 37.418067                                                 
C 49.459151 67.282054 37.699334                                                 
H 63.841499 46.178167 36.912861                                                 
H 28.298403 39.561971 36.634975                                                 
H 25.852985 48.257071 38.368157                                                 
H 63.826276 50.907821 36.642945                                                 
H 49.288666 30.167100 36.977992                                                 
H 61.556254 37.363757 36.548964                                                 
H 32.236576 64.177593 37.131654                                                 
H 36.286024 66.512568 37.011904                                                 
H 63.844304 41.505361 36.172078                                                 
H 63.778060 55.598508 36.408611                                                 
H 25.872857 43.591096 37.392991                                                 
H 25.788729 57.747560 37.392727                                                 
C 61.690599 60.310411 36.907500                                                 
H 40.243137 68.893229 37.223819                                                 
C 45.377292 69.547584 37.461322                                                 
H 28.191149 61.816981 37.093173                                                 
C 52.158110 67.243776 37.828529                                                 
C 56.224853 64.919755 37.778146                                                 
C 60.328294 62.639098 37.172996                                                 
C 48.061891 69.563276 37.616530                                                 
H 63.773848 60.315932 36.837694                                                 
H 44.316080 71.338839 37.518520                                                 
H 53.193940 69.024448 38.161914                                                 
H 57.247713 66.706869 38.109986                                                 
H 61.361595 64.441770 37.238404                                                 
H 49.084831 71.374519 37.723675                                                 
H 28.545584 37.993103 44.143518                                                 
H 40.357760 30.076811 44.596333                                                 
H 32.480240 35.309243 43.817583                                                 
H 36.364846 32.639656 44.242938                                                 
H 45.105531 29.792915 44.617475                                                 
H 26.445551 42.294453 44.180801                                                 
C 41.512686 31.798621 44.397622                                                 
C 29.708438 39.718563 44.112559                                                 
H 61.902559 37.923969 43.467041                                                 
C 33.620422 37.048764 44.021075                                                 
C 37.518179 34.371513 44.021951                                                 
C 44.145176 31.640866 44.469489                                                 
H 49.259453 31.884478 44.598658                                                 
H 64.567230 41.926197 43.357646                                                 
C 28.518521 42.153381 44.179764                                                 
H 65.544189 56.058596 43.765174                                                 
H 26.839775 47.056096 44.136395                                                 
H 27.793187 60.994505 44.774251                                                 
H 53.400004 33.907899 44.329697                                                 
H 57.649944 35.913129 44.052023                                                 
H 30.430972 64.972586 44.701843                                                 
H 27.232047 51.695165 44.810386                                                 
H 65.261172 51.323618 43.482086                                                 
H 43.208219 71.182202 44.426011                                                 
H 63.450513 60.316952 44.164460                                                 
H 27.531568 56.264486 45.048984                                                 
H 64.890686 46.653396 43.305830                                                 
C 32.361890 39.476677 44.083369                                                 
C 40.264219 34.155909 44.232606                                                 
H 47.995360 70.834654 44.520823                                                 
C 36.322084 36.804844 44.065106                                                 
H 38.931702 69.132147 44.249944                                                 
C 60.999566 39.791299 43.549103                                                 
C 62.495649 42.053369 43.459705                                                 
H 34.700389 67.115366 44.504074                                                 
C 48.329230 33.733638 44.362068                                                 
C 63.464385 56.190593 43.818371                                                 
C 28.906103 46.867456 44.400508                                                 
H 59.511592 62.938491 44.506408                                                 
C 29.872670 60.862788 44.728717                                                 
C 45.652483 33.865793 44.396390                                                 
H 51.864694 68.132994 44.332235                                                 
H 55.647151 65.500286 44.690850                                                 
C 30.002830 44.403463 44.161676                                                 
C 31.367643 63.111028 44.612203                                                 
C 52.501411 35.773230 44.017201                                                 
C 62.289510 58.587292 44.037164                                                 
C 56.734860 37.768950 43.724829                                                 
C 44.116017 69.309018 44.421726                                                 
C 29.326697 51.522170 44.759834                                                 
C 63.177489 51.477168 43.528146                                                 
C 29.608875 56.155229 44.784340                                                 
C 62.816644 46.788252 43.406681                                                 
C 46.813942 69.122738 44.525096                                                 
C 49.814857 35.923816 44.145210                                                 
C 58.305736 39.955646 43.557915                                                 
C 39.845710 67.259870 44.230149                                                 
C 54.039667 37.960870 43.620780                                                 
C 30.438081 49.094869 44.522006                                                 
C 61.381787 44.477873 43.463939                                                 
C 35.606230 65.228974 44.378859                                                 
C 41.758495 36.476424 44.095376                                                 
C 62.009659 53.952803 43.769125                                                 
C 33.938518 41.759969 44.039975                                                 
C 31.033389 58.437960 44.533502                                                 
C 45.393073 50.377597 43.594319                                                 
C 30.812101 53.749048 44.853904                                                 
C 37.845693 39.099950 44.039305                                                 
C 61.693848 49.220524 43.481804                                                 
C 46.909028 52.626444 43.634951                                                 
C 58.369842 61.190574 44.365630                                                 
C 42.700451 50.567959 43.644529                                                 
C 46.583451 47.924990 43.540715                                                 
C 44.448214 36.311170 44.135345                                                 
C 34.034294 62.982046 44.399890                                                 
C 50.672073 66.422255 44.324863                                                 
C 42.571529 67.142497 44.301844                                                 
C 32.754164 44.211719 44.090776                                                 
C 54.487129 63.772625 44.536731                                                 
C 59.613152 58.784241 44.163084                                                 
C 45.733995 55.061333 43.689932                                                 
C 49.618677 52.418151 43.682962                                                 
C 41.187842 48.313503 43.650853                                                 
C 45.066849 45.677278 43.552365                                                 
C 38.308737 65.064677 44.232881                                                 
C 41.522486 53.007978 43.738146                                                 
C 49.287415 47.724524 43.595264                                                 
C 48.012401 66.689704 44.394420                                                 
C 40.559704 38.918723 43.968497                                                 
C 36.637960 41.556464 43.969368                                                 
C 42.362139 45.866515 43.601050                                                 
C 43.033912 55.260053 43.746751                                                 
C 50.815417 49.977810 43.708216                                                 
C 48.623756 38.382065 43.913977                                                 
C 55.689735 61.385540 44.444504                                                 
C 33.152802 48.898385 44.305756                                                 
C 52.841788 40.429943 43.541791                                                 
C 57.095349 42.411590 43.548246                                                 
C 51.832382 64.018213 44.165241                                                 
C 58.608419 44.691951 43.602531                                                 
C 45.930407 38.560811 43.906853                                                 
C 46.250918 43.240183 43.572237                                                 
C 38.497849 48.505384 43.783798                                                 
C 34.289876 46.450320 44.061155                                                 
C 33.488740 53.566615 44.443027                                                 
C 50.477888 45.275284 43.630967                                                 
C 38.829956 53.201034 43.877191                                                 
C 51.128864 54.665578 43.829867                                                 
C 40.851959 43.624706 43.684879                                                 
C 50.141906 40.612983 43.658604                                                 
C 47.255825 57.301347 43.756868                                                 
C 33.773782 58.250315 44.356973                                                 
C 59.263806 54.109333 43.856951                                                 
C 42.049343 41.168243 43.760506                                                 
C 38.161139 43.815587 43.796909                                                 
C 48.945010 43.049618 43.557586                                                 
C 44.735164 40.988258 43.703437                                                 
C 58.943918 49.419742 43.646071                                                 
C 37.331215 50.952390 43.931808                                                 
C 35.271308 60.508898 44.274143                                                 
C 36.985926 46.252624 43.848671                                                 
C 34.651507 51.142016 44.221373                                                 
C 54.383869 42.635767 43.586022                                                 
C 53.524629 49.761689 43.941241                                                 
C 49.951665 57.094584 43.828227                                                 
C 43.753968 64.615801 44.239695                                                 
C 41.858348 57.695701 43.867732                                                 
C 58.066357 56.526682 44.035139                                                 
C 34.961671 55.824830 44.252112                                                 
C 53.202970 45.061055 43.822470                                                 
C 57.447016 47.124620 43.782182                                                 
C 39.485231 62.572649 44.141337                                                 
C 37.651707 55.645774 44.010531                                                 
C 57.757896 51.858493 43.837706                                                 
C 54.712753 47.322585 43.996635                                                 
C 46.466074 64.414415 44.213183                                                 
C 53.838537 54.463352 43.996571                                                 
C 55.045056 52.035262 44.010493                                                 
C 39.147526 57.891485 43.980097                                                 
C 46.070644 59.732847 43.859629                                                 
C 37.962615 60.325885 44.114941                                                 
C 54.166880 59.138650 44.144875                                                 
C 43.385056 59.926217 43.932974                                                 
C 50.294534 61.755848 44.022296                                                 
C 42.222960 62.382427 44.110320                                                 
C 51.474497 59.337490 43.994762                                                 
C 55.368282 56.718936 44.055152                                                 
C 47.605796 61.975779 43.999663                                                 
H 43.876085 29.854148 50.268980                                                 
H 28.036496 39.499135 51.685748                                                 
H 48.608282 29.708681 50.232512                                                 
H 60.874518 36.465635 51.199619                                                 
H 63.302746 40.522374 51.411655                                                 
H 25.756644 43.644601 51.936345                                                 
H 28.501680 61.697246 52.071351                                                 
H 26.020472 57.638183 52.041615                                                 
H 36.100938 34.746989 51.423070                                                 
H 39.997875 32.339049 50.667925                                                 
H 32.095704 37.132709 51.651985                                                 
H 63.543464 49.826138 51.164455                                                 
H 36.655012 66.092823 52.032767                                                 
H 63.763159 59.068085 51.953848                                                 
H 44.800971 70.568682 52.564254                                                 
H 63.438018 45.203857 51.152937                                                 
H 32.607541 63.888551 52.042968                                                 
H 52.657120 31.944302 50.500949                                                 
H 56.742033 34.186295 51.049869                                                 
H 63.636924 54.432615 51.549698                                                 
H 61.487280 63.217889 52.275273                                                 
H 40.692721 68.358700 52.076673                                                 
H 49.536925 70.507411 52.441207                                                 
H 25.922935 52.986860 51.845015                                                 
H 25.898910 48.339442 52.245455                                                 
C 44.997592 31.606033 50.184511                                                 
C 47.604940 31.530126 50.153264                                                 
C 29.091957 41.285727 51.511655                                                 
C 59.892266 38.287215 50.987287                                                 
C 27.814595 43.596999 51.631301                                                 
C 61.243262 40.552468 51.120416                                                 
C 28.077981 57.620905 51.756973                                                 
C 29.458941 59.875770 51.784581                                                 
H 57.524303 65.664743 52.155129                                                 
H 53.566942 68.118790 52.071637                                                 
C 41.092548 34.120214 50.599105                                                 
C 37.080827 36.483172 50.775797                                                 
C 33.093874 38.868310 51.031408                                                 
C 61.706940 59.169611 51.644090                                                 
C 45.812904 68.802742 52.130003                                                 
C 60.445042 61.477928 51.815045                                                 
C 51.680498 33.776577 50.363218                                                 
C 48.455957 68.774566 52.043482                                                 
C 55.768750 36.007378 50.794435                                                 
C 61.376774 45.247698 50.849115                                                 
C 61.524713 49.894937 50.614224                                                 
C 33.553130 62.136132 51.411986                                                 
C 37.618389 64.368700 51.345151                                                 
C 27.906725 48.292760 51.699670                                                 
C 27.970888 52.947740 51.476395                                                 
C 61.625048 54.525837 50.987242                                                 
C 41.695218 66.582799 51.647335                                                 
C 43.716640 33.968693 50.223139                                                 
C 49.044395 33.814015 50.135658                                                 
C 31.740069 41.191644 51.086638                                                 
C 57.199391 38.270284 50.746200                                                 
C 29.143290 45.935261 51.421002                                                 
C 60.020143 42.932225 50.821087                                                 
C 29.302103 55.251290 51.371778                                                 
C 39.796329 36.434205 50.686492                                                 
C 32.108625 59.881695 51.345477                                                 
C 35.734540 38.815602 50.740626                                                 
C 53.090473 36.025910 50.513520                                                 
C 56.463949 63.932524 51.695052                                                 
C 52.496969 66.383063 51.658342                                                 
C 29.231046 50.615354 51.405235                                                 
C 45.370262 50.308671 49.349857                                                 
C 60.379529 56.900007 51.078564                                                 
C 60.143698 47.586938 50.682424                                                 
C 44.379554 66.579864 51.632159                                                 
C 36.205616 62.098005 51.199772                                                 
C 60.258540 52.264829 50.688238                                                 
C 40.304828 64.346095 51.354265                                                 
C 57.768816 61.632333 51.460751                                                 
C 49.819550 66.488431 51.597298                                                 
C 44.067049 52.680944 49.449572                                                 
C 48.082877 50.246722 49.361939                                                 
C 43.960363 47.997078 49.356808                                                 
C 53.825429 64.055145 51.466796                                                 
C 45.483685 54.989010 49.547414                                                 
C 49.495418 52.560397 49.463390                                                 
C 45.093801 36.272017 49.948766                                                 
C 41.355548 52.734605 49.567196                                                 
C 49.374964 47.872550 49.385498                                                 
C 47.765226 36.197059 49.935803                                                 
C 33.111996 43.521844 50.691743                                                 
C 41.253957 48.058983 49.471127                                                 
C 45.267393 45.622587 49.351850                                                 
C 31.822327 45.878208 50.849059                                                 
C 55.926359 40.676729 50.356430                                                 
C 57.322197 42.983766 50.381165                                                 
C 31.991830 55.222580 50.897740                                                 
C 33.382616 57.524259 50.847012                                                 
C 48.198470 54.931072 49.558875                                                 
C 39.947977 50.424759 49.592460                                                 
C 47.971553 45.556565 49.371231                                                 
C 51.817214 38.434114 50.130370                                                 
C 41.135006 38.725618 50.126998                                                 
C 37.104426 41.128664 50.208781                                                 
C 57.687118 56.999856 50.652411                                                 
C 31.908867 50.558348 50.783847                                                 
C 45.701567 64.252344 51.052695                                                 
C 57.435300 47.666270 50.215257                                                 
C 56.391937 59.348509 50.840481                                                 
C 37.488553 59.760689 50.597886                                                 
C 48.396438 64.201298 51.061076                                                 
C 57.560485 52.352302 50.217840                                                 
C 41.603785 62.002838 50.734896                                                 
C 40.051614 55.095552 49.792030                                                 
C 44.183836 57.348749 49.792719                                                 
C 52.201105 52.494466 49.605807                                                 
C 52.074083 47.804691 49.550896                                                 
C 39.851412 45.742976 49.593307                                                 
C 49.153894 38.502126 49.831367                                                 
C 43.868090 43.313651 49.452575                                                 
C 43.794864 38.644423 49.818826                                                 
C 35.790748 43.475095 50.196683                                                 
C 53.230418 40.745605 50.031082                                                 
C 33.192920 48.206909 50.516775                                                 
C 33.269870 52.866590 50.525160                                                 
C 39.784389 41.066569 49.904374                                                 
C 41.471545 57.394391 49.918330                                                 
C 56.045746 45.358986 50.055102                                                 
C 53.484615 50.116277 49.657561                                                 
C 41.161941 43.372121 49.580234                                                 
C 36.072060 57.490929 50.429074                                                 
C 52.411449 61.762047 50.864566                                                 
C 37.246620 50.475524 49.858696                                                 
C 56.175592 50.043593 49.968420                                                 
C 49.270864 43.184939 49.500067                                                 
C 40.179594 59.733313 50.360021                                                 
C 49.607881 57.234174 49.828904                                                 
C 56.293472 54.710891 50.174272                                                 
C 44.299928 61.973165 50.569206                                                 
C 45.181529 40.950357 49.540659                                                 
C 37.159486 45.792232 49.883950                                                 
C 37.348706 55.141138 50.045270                                                 
C 53.363397 45.426516 49.710068                                                 
C 47.873062 40.879922 49.573998                                                 
C 35.856043 48.160823 50.032849                                                 
C 51.964537 43.114597 49.687327                                                 
C 35.948108 52.832849 50.097134                                                 
C 45.597983 59.646029 50.085680                                                 
C 53.703002 59.436138 50.505198                                                 
C 49.708991 61.852394 50.631782                                                 
C 53.603688 54.799702 49.864945                                                 
C 48.305627 59.588234 50.112677                                                 
C 52.310814 57.162451 50.001647                                                 
Li 59.854935 41.412064 40.086506                                                
Li 31.861635 60.650194 41.223453                                                
Li 30.577841 42.046190 40.727889                                                
Li 46.432100 67.591469 40.854213                                                
Li 59.779199 60.228550 40.487802                                                
Li 54.396500 62.392876 40.792538                                                
Li 41.180028 64.931337 40.958025                                                
Li 39.509669 35.504581 40.751102                                                
Li 29.276396 54.099542 41.383893                                                
Li 30.928881 47.898112 40.879336                                                
Li 50.999131 37.667733 40.628986                                                
Li 62.609532 53.310905 39.997298                                                
Li 62.653544 52.522196 47.477094                                                
Li 59.720155 46.968792 40.280155                                                
Li 35.203446 39.114322 40.868819                                                
Li 46.814932 33.773904 40.559755                                                
Li 55.214584 35.231361 40.803842                                                
Li 34.832052 64.874061 40.583697                                                
Li 56.306756 64.300878 33.764601                                                
Li 60.249751 47.052754 46.865072                                                
Li 51.439315 67.059597 33.866493                                                
Li 51.739769 64.695788 47.988812                                                
Li 34.807621 64.383166 48.227864                                                
Li 40.964428 64.863177 47.549692                                                
Li 59.745242 59.814180 48.029646                                                
Li 46.693635 67.633224 48.285312                                                
Li 28.238278 49.086796 47.835746                                                
Li 59.704246 40.741523 47.307741                                                
Li 34.042174 36.524558 47.912144                                                
Li 27.920754 48.020467 34.007342                                                
Li 43.980996 67.978541 33.692511                                                
Li 39.851245 36.091008 33.579819                                                
Li 60.947903 58.623741 33.112071                                                
Li 29.869890 43.165436 47.939622                                                
Li 52.119439 34.447679 33.595672                                                
Li 29.098106 53.166222 34.363110                                                
Li 62.730953 48.111277 33.494984                                                
Li 54.778970 37.667747 47.308475                                                
Li 29.974232 58.138716 48.222466                                                
Li 35.170240 63.391934 34.118701                                                
Li 44.298305 33.616185 33.552971                                                
Li 34.658425 37.117336 33.967598                                                
Li 56.027360 37.893859 33.786098                                                
Li 55.179641 53.347416 40.303774                                                
Li 61.697943 53.474156 33.244727                                                
Li 38.592547 34.635010 47.657303                                                
Li 52.783186 47.349508 40.635442                                                
Li 38.993760 66.989280 33.744600                                                
%ENDBLOCK POSITIONS_ABS                                                         

--------------------------------------------------------------------------------
-------------------------------- END INPUT FILE --------------------------------
--------------------------------------------------------------------------------


 
<<<<<<<<<<<<<<<<<<<<<<<<<<<<<<<<< Full system >>>>>>>>>>>>>>>>>>>>>>>>>>>>>>>>>>
<<<<<<<<<<<<<<<<<<<<<<<<<<< PAW Dataset information >>>>>>>>>>>>>>>>>>>>>>>>>>>
File: ~/pp/paw/c_pbe_abinit.paw; rc = 1.25 bohr; shape type =  3; rshape = 1.25 bohr;
  Atomic number:  6;  ionic charge:  4.000000
    Partial Wave 1: l = 0
    Partial Wave 2: l = 0
    Partial Wave 3: l = 1
    Partial Wave 4: l = 1
  Core charge supplied for Nonlinear Core Corrections
File: ~/pp/paw/h_pbe_abinit.paw; rc = 0.90 bohr; shape type =  3; rshape = 0.90 bohr;
  Atomic number:  1;  ionic charge:  1.000000
    Partial Wave 1: l = 0
    Partial Wave 2: l = 0
File: ~/pp/paw/li_pbe_abinit.paw; rc = 1.42 bohr; shape type =  3; rshape = 1.42 bohr;
  Atomic number:  3;  ionic charge:  3.000000
    Partial Wave 1: l = 0
    Partial Wave 2: l = 0
    Partial Wave 3: l = 0
    Partial Wave 4: l = 1
    Partial Wave 5: l = 1
<<<<<<<<<<<<<<<<<<<<<<<<<<<<<<<<<<<<<<< >>>>>>>>>>>>>>>>>>>>>>>>>>>>>>>>>>>>>>>

-------------------------- Atom counting information ---------------------------
Symbol    Natoms    Nngwfs    Nprojs
  C        484      1936      3872
  H        108       108       216
  Li        48       240       432
.......   ......    ......    ......
Totals:    640      2284      4520
--------------------------------------------------------------------------------

=============================== PSINC grid sizes ===============================
                      Simulation cell:  189 x 189 x 189
                              FFT-box:  117 x 117 x 117
                                  PPD:    7 x   7 x   1
Grid space d1=  0.499927596032a0 (KE cutoff=  30.39413Eh = 827.06648eV)
Grid space d2=  0.499927596032a0 (KE cutoff=  30.39413Eh = 827.06648eV)
Grid space d3=  0.499927596032a0 (KE cutoff=  30.39413Eh = 827.06648eV)
================================================================================
  
WARNING in cell_grid_distribute:
Average of less than one 23-slab per proc, so workload cannot be
equally balanced between procs.

********************* Fourier parallelisation information **********************
       Coarse grid (whole simulation cell) dimensions:    189   189   189
          Real-space ('12') slabs/proc (min max mean):      1     2     1
         Recip-space ('23') slabs/proc (min max mean):      0     1     0
********************************************************************************

********************* Fourier parallelisation information **********************
       Double grid (whole simulation cell) dimensions:    378   378   378
          Real-space ('12') slabs/proc (min max mean):      2     3     2
         Recip-space ('23') slabs/proc (min max mean):      1     2     1
********************************************************************************

Atom SCF Calculation for C  : Z (AE atom) =   6 : Z (PS atom) =   4
Config String: 2s2 2p2
Orbitals (num,occ):  2     2.00 2.00
Orbitals   (num,l):  2        0    1
Real-space Grid (nr,dr,rmax): 1377    0.0065406977    9.0000000000
Spherical Bessel Basis (nsws,lmax,cutoff):   37    2  183.0099912382
Confining potential (l,width,scale):  0    3.0000000000  100.0000000000
Confining potential (l,width,scale):  1    3.0000000000  100.0000000000
  1         -5.4795186097   -1.3252230651    4.5135247139   -1.6370402178
  2         -5.4480873667   -1.4027986130    4.4305957006   -1.6109824140
  3         -5.4553175168   -1.4212842775    4.4102621601   -1.6059044058
  4         -5.4627851864   -1.4247099971    4.4065125496   -1.6052912254
  5         -5.4662317525   -1.4266823431    4.4043718731   -1.6049357348
  6         -5.4679531179   -1.4277361345    4.4032352159   -1.6047498153
  7         -5.4688370531   -1.4282876632    4.4026436340   -1.6046546171
  8         -5.4692962224   -1.4285743132    4.4023378281   -1.6046060967
  9         -5.4695360875   -1.4287229388    4.4021801230   -1.6045813828
 10         -5.4696617783   -1.4287999625    4.4020988354   -1.6045687883
 11         -5.4697277645   -1.4288398966    4.4020569195   -1.6045623641
 12         -5.4697624500   -1.4288606199    4.4020352864   -1.6045590836
 13         -5.4697806994   -1.4288713865    4.4020241086   -1.6045574064
 14         -5.4697903086   -1.4288769875    4.4020183254   -1.6045565478
 15         -5.4697953717   -1.4288799052    4.4020153292   -1.6045561077
 16         -5.4697980412   -1.4288814272    4.4020137746   -1.6045558818
 17         -5.4697994496   -1.4288822223    4.4020129668   -1.6045557657
 18         -5.4698001930   -1.4288826382    4.4020125465   -1.6045557059
 19         -5.4698005858   -1.4288828561    4.4020123274   -1.6045556751
 20         -5.4698007933   -1.4288829704    4.4020122131   -1.6045556592
 21         -5.4698009031   -1.4288830304    4.4020121533   -1.6045556509
 22         -5.4698009612   -1.4288830620    4.4020121220   -1.6045556467
Atom SCF converged after  22 iterations to a total energy of     -5.46980096

Atom SCF Calculation for H  : Z (AE atom) =   1 : Z (PS atom) =   1
Config String: 1s1
Orbitals (num,occ):  1     1.00
Orbitals   (num,l):  1        0
Real-space Grid (nr,dr,rmax): 1377    0.0065406977    9.0000000000
Spherical Bessel Basis (nsws,lmax,cutoff):   37    1  183.0099912382
Confining potential (l,width,scale):  0    3.0000000000  100.0000000000
  1         -0.3687944832   -0.2607687933    0.2820952946   -0.2613406499
  2         -0.4328656062   -0.2590521405    0.2895573663   -0.2701762133
  3         -0.4633856573   -0.2560091938    0.2934204754   -0.2757429988
  4         -0.4750266404   -0.2549676794    0.2946557510   -0.2779015032
  5         -0.4793045155   -0.2546870695    0.2949704774   -0.2786577123
  6         -0.4808919118   -0.2546234645    0.2950332622   -0.2789201171
  7         -0.4814942533   -0.2546130669    0.2950388368   -0.2790132353
  8         -0.4817280090   -0.2546133926    0.2950352123   -0.2790473458
  9         -0.4818204053   -0.2546148712    0.2950319888   -0.2790602287
 10         -0.4818574273   -0.2546158825    0.2950301416   -0.2790652181
 11         -0.4818724050   -0.2546164247    0.2950292178   -0.2790671871
 12         -0.4818785049   -0.2546166894    0.2950287833   -0.2790679748
 13         -0.4818810009   -0.2546168128    0.2950285855   -0.2790682928
 14         -0.4818820255   -0.2546168689    0.2950284970   -0.2790684221
 15         -0.4818824471   -0.2546168940    0.2950284580   -0.2790684748
 16         -0.4818826210   -0.2546169051    0.2950284408   -0.2790684964
 17         -0.4818826928   -0.2546169100    0.2950284333   -0.2790685053
Atom SCF converged after  17 iterations to a total energy of     -0.48188269

Atom SCF Calculation for Li : Z (AE atom) =   3 : Z (PS atom) =   3
Config String: 1s2 2s1 2p0
Orbitals (num,occ):  3     2.00 1.00 0.00
Orbitals   (num,l):  3        0    0    1
Real-space Grid (nr,dr,rmax): 1377    0.0065406977    9.0000000000
Spherical Bessel Basis (nsws,lmax,cutoff):   37    2  183.0099912382
Confining potential (l,width,scale):  0    3.0000000000  100.0000000000
Confining potential (l,width,scale):  1    3.0000000000  100.0000000000
  1         -6.1314629607   -4.7499359229    2.5388576516   -1.0480231927
  2         -7.0450508208   -4.1702030791    2.9795337774   -1.2623862962
  3         -7.3518474013   -3.9564527259    3.2037296734   -1.3880788964
  4         -7.4613386962   -3.8947565558    3.2914990517   -1.4402825036
  5         -7.5001516047   -3.8789668192    3.3221434609   -1.4602864917
  6         -7.5136113510   -3.8755528126    3.3322769691   -1.4678164580
  7         -7.5181182589   -3.8751724459    3.3354399675   -1.4706394447
  8         -7.5195538340   -3.8753832694    3.3363346353   -1.4716958846
  9         -7.5199777516   -3.8756112412    3.3365363545   -1.4720903919
 10         -7.5200869011   -3.8757624244    3.3365501247   -1.4722372325
 11         -7.5201065703   -3.8758489541    3.3365264569   -1.4722916218
 12         -7.5201049812   -3.8758952022    3.3365040630   -1.4723116262
 13         -7.5201006323   -3.8759190019    3.3364892955   -1.4723189110
 14         -7.5200980758   -3.8759285770    3.3364824548   -1.4723210036
 15         -7.5200963811   -3.8759342877    3.3364781194   -1.4723220111
 16         -7.5200953120   -3.8759376792    3.3364754203   -1.4723224913
 17         -7.5200946593   -3.8759396866    3.3364737619   -1.4723227171
 18         -7.5200942701   -3.8759408718    3.3364727530   -1.4723228213
 19         -7.5200940419   -3.8759415700    3.3364721439   -1.4723228682
 20         -7.5200939099   -3.8759419808    3.3364717784   -1.4723228886
 21         -7.5200938343   -3.8759422222    3.3364715600   -1.4723228969
Atom SCF converged after  21 iterations to a total energy of     -7.52009383

Determining parallel strategy ...
... using space-filling curve
... NGWF load balancing: max     17;  min     13;  average     14
... Projector load balancing: max     34;  min     25;  average     28
... done
Calculating Ewald energy ...
              Ewald: real-space energy =   37998.866873
        Ewald: reciprocal-space energy =   37663.648335
         Ewald: (sum_charge)**2 Energy =    2939.695857
         Ewald: (sum_charge**2) Energy =     257.375876
                          Ewald Energy =   72465.443475
Basis initialisation ...... NGWF spheres initialised
... Projector spheres initialised
... NGWF tight boxes initialised
... Projector tight boxes initialised
... Tight-boxes gathered
... NGWF basis size (local,global):     285862  46091132
... PAW projector initialisation
... done

============================= Charge Augmentation ==============================
                           Aug box size:   13 x  13 x  13
================================================================================

========================== Sparse matrix information ===========================
                        Overlap matrix filling:  37.25%
                        Density kernel filling: 100.00%
              NGWF-Proj overlap matrix filling:  10.39%
                    Aug Overlap matrix filling:  41.73%
                    Hamiltonian matrix filling:  41.73%
                  NGWF diagonal matrix filling:   0.17%
                             KS matrix filling: 100.00% 
                           KSKS matrix filling: 100.00% 
================================================================================

Sparse matrix initialisation ... done
NGWF initialisation ...... done
============ Calculation of NGWF S^-1 using Hotelling algorithm ================ 
         Iteration  |  Frobenius norm and Maximum abs value    (of I-S*S_n^-1)   
               1       0.47548019E+02     0.99744881E+00
               2       0.47315862E+02     0.99490969E+00
               3       0.46881620E+02     0.98986670E+00
               4       0.46115448E+02     0.97991572E+00
               5       0.44885570E+02     0.96051391E+00
               6       0.43140028E+02     0.92350313E+00
               7       0.40914377E+02     0.85539039E+00
               8       0.38229429E+02     0.80415324E+00
               9       0.35173645E+02     0.78938474E+00
              10       0.32055948E+02     0.76966420E+00
              11       0.28979953E+02     0.74679382E+00
              12       0.25421340E+02     0.72619519E+00
              13       0.20792444E+02     0.68970709E+00
              14       0.15029778E+02     0.62384501E+00
              15       0.91622935E+01     0.51547950E+00
              16       0.50601854E+01     0.43283601E+00
              17       0.30485499E+01     0.36164372E+00
              18       0.18414444E+01     0.29532782E+00
              19       0.95261663E+00     0.21401819E+00
              20       0.37933239E+00     0.11956779E+00
              21       0.10322874E+00     0.38035517E-01
              22       0.10270598E-01     0.38540777E-02
              23       0.10542830E-03     0.39572987E-04
              24       0.11115123E-07     0.41721093E-08
              25       0.71948425E-13     0.84376950E-14
================================================================================
Calculating core density ...
================================= Core Density =================================
               Core den box size:   21 x  21 x  21
================================================================================
 ... done
Up spin density kernel initialisation ...... done
Down spin density kernel initialisation ...... done

Writing density kernel to file "48/592nano.dkn" ... done

>>> Optimising kernel for current NGWFs:

--------------------------- Ensemble-DFT optimisation --------------------------
Running ScaLAPACK on  160 processor(s).

--------------------------------------------------------------------------------
  Iter                              Commutator    Free_energy(A=E-TS)     DeltaA
#    0                          0.001403913009   -3187.05106955733572  -3.19E+03

Step                       =       0.381966011250
Energy (E)                 =   -3187.008450208868
Entropy (-TS)              =      -0.042619348467
Free energy (A=E-TS)       =   -3187.051069557336
Est. 0K Energy 0.5*(E+A)   =   -3187.029759883102
Residual Non-orthogonality =       0.000000000000
Residual N_electrons       =       0.000000000000

Spin          Integrated_Ne            Fermi_level     Delta_Fermi_level
   1      1094.000000000000        -0.222373559812             -2.22E-01
   2      1094.000000000000        -0.222373559808             -2.22E-01

                           Spin 1           |                 Spin 2           |
     Orb |    H-eigenvalues     Occupancies |    H-eigenvalues     Occupancies |
       1 |    -1.8984470992    1.0000000000 |    -1.8984470992    1.0000000000 | 
                          ------                             ------
    1089 |    -0.2349503750    0.9815024148 |    -0.2349503750    0.9815024148 | 
    1090 |    -0.2322224757    0.9573050644 |    -0.2322224757    0.9573050644 | 
    1091 |    -0.2258304970    0.7486856157 |    -0.2258304970    0.7486856157 | 
    1092 |    -0.2254125642    0.7230500648 |    -0.2254125642    0.7230500648 | 
    1093 |    -0.2228630607    0.5385662846 |    -0.2228630607    0.5385662846 | 
                  Finite temp. Fermi level   |      Finite temp. Fermi level  
    1094 |    -0.2221107331    0.4792633723 |    -0.2221107331    0.4792633723 | 
                 - Gap at zero temperature - |     - Gap at zero temperature -
    1095 |    -0.2213502603    0.4199125351 |    -0.2213502603    0.4199125351 | 
    1096 |    -0.2198304063    0.3093703981 |    -0.2198304063    0.3093703981 | 
    1097 |    -0.2193800327    0.2798348146 |    -0.2193800327    0.2798348146 | 
    1098 |    -0.2178564923    0.1936637903 |    -0.2178564923    0.1936637903 | 
                          ------                             ------
    2284 |     0.5542154828    0.0000000000 |     0.5542154828    0.0000000000 | 

                            |  Abs_value |  Threshold | Converged
     Delta_Free_energy/atom |   4.98E+00 |   1.00E-06 |        No
     Delta_Energy/atom      |   4.98E+00 |   1.00E-04 |        No
     Delta_Entropy/atom     |   6.66E-05 |   1.00E-04 |       Yes
     Commutator             |   1.40E-03 |   1.00E-05 |        No
     Delta_Fermi_level      |   2.22E-01 |   1.00E-03 |        No

  Line search of the free energy minimum:
  Step_type        Step             Free_energy   Predicted_free_energy
.   Initial    0.000000    -3187.05106955733572

Performing  Pulay mixing of Hamiltonian with coefficients:
                        Spin 1               Spin 2
                1.000000000000       1.000000000000
Lambda-->      45.865483755451      45.865483753684     ... done

.    Trial1    0.381966    -3185.04705897353733

Performing  Pulay mixing of Hamiltonian with coefficients:
                        Spin 1               Spin 2
                1.000000000000       1.000000000000
Lambda-->      45.865483755451      45.865483753684     ... done

[...]
 C   361 -- Li  601       -0.04      0.00      5.64171
 C    50 -- Li  611       -0.04      0.00      5.64351
 C   307 -- Li  621       -0.07      0.00      5.64374
 H   286 -- Li  594       -0.02      0.00      5.64740
 C    64 -- C   210       -0.04     -0.00      5.65017
 H   317 -- Li  615       -0.03      0.00      5.65113
 H   275 -- Li  608       -0.01      0.00      5.65309
 H   460 -- Li  612       -0.02     -0.00      5.65414
 C   183 -- Li  622       -0.05      0.00      5.66341
 H   458 -- Li  617       -0.01      0.00      5.66566
 C   263 -- Li  628       -0.07      0.00      5.66720
=============================================================


============== Orbital energy and occupancy information for spin 1 =============

      Total number of orbitals:    2284
        Occupancy sum (kernel):    1093.999999972
   Occupancy sum (eigenvalues):    1093.999999972
                 HOMO-LUMO gap:       0.000643592 Eh
                 Mid-gap level:      -0.072399368 Eh

                        Orbital | Energy (Eh) | Occupancy
                            1    -1.853299094   1.0000000
                        .......   ...........   .........
                         1086    -0.091224557   0.9937266
                         1087    -0.089252267   0.9877563
                         1088    -0.087899691   0.9823098
                         1089    -0.085854264   0.9652280
                         1090    -0.082146701   0.8967830
                         1091    -0.080009978   0.8076782
                         1092    -0.078600624   0.7269527
                         1093    -0.077682948   0.6693904
                         1094    -0.074224964   0.4225257
                         1095    -0.072721164   0.3248773
                        ....... -- gap at 0K -- .........
                         1096    -0.072077572   0.2788105
                         1097    -0.070885937   0.1964979
                         1098    -0.069458268   0.1424348
                         1099    -0.069308390   0.1274506
                         1100    -0.068541266   0.1164109
                         1101    -0.067441595   0.0749517
                         1102    -0.066105945   0.0529207
                         1103    -0.065639770   0.0439573
                         1104    -0.064958548   0.0377422
                         1105    -0.064633281   0.0336362
                        .......   ...........   .........
                         2284     0.767671159   0.0000000

================================================================================

============== Orbital energy and occupancy information for spin 2 =============

      Total number of orbitals:    2284
        Occupancy sum (kernel):    1094.000000029
   Occupancy sum (eigenvalues):    1094.000000029
                 HOMO-LUMO gap:       0.001503800 Eh
                 Mid-gap level:      -0.073473064 Eh

                        Orbital | Energy (Eh) | Occupancy
                            1    -1.853299094   1.0000000
                        .......   ...........   .........
                         1085    -0.092713582   0.9955554
                         1086    -0.091224557   0.9937266
                         1087    -0.089252268   0.9877563
                         1088    -0.087899691   0.9823098
                         1089    -0.085854263   0.9652280
                         1090    -0.082146700   0.8967830
                         1091    -0.080009978   0.8076782
                         1092    -0.078600624   0.7269527
                         1093    -0.077682948   0.6693903
                         1094    -0.074224964   0.4225258
                        ....... -- gap at 0K -- .........
                         1095    -0.072721164   0.3248773
                         1096    -0.072077571   0.2788105
                         1097    -0.070885937   0.1964979
                         1098    -0.069458268   0.1424348
                         1099    -0.069308390   0.1274505
                         1100    -0.068541267   0.1164109
                         1101    -0.067441595   0.0749517
                         1102    -0.066105944   0.0529207
                         1103    -0.065639770   0.0439573
                         1104    -0.064958548   0.0377422
                        .......   ...........   .........
                         2284     0.767671159   0.0000000

================================================================================

===================== Writing canonical molecular orbitals =====================
    Spin 1
| Orbital  Energy (eV)  Norm     |
| HOMO     -1.97884357  1.000000 | Writing "48/592nano_HOMO_UP.cube" ... done
Writing "48/592nano_HOMO_UP.dx" ... done
| LUMO     -1.96133053  1.000000 | Writing "48/592nano_LUMO_UP.cube" ... done
Writing "48/592nano_LUMO_UP.dx" ... done
================================================================================

===================== Writing canonical molecular orbitals =====================
    Spin 2
| Orbital  Energy (eV)  Norm     |
| HOMO     -2.01976404  1.000000 | Writing "48/592nano_HOMO_DN.cube" ... done
Writing "48/592nano_HOMO_DN.dx" ... done
| LUMO     -1.97884356  1.000000 | Writing "48/592nano_LUMO_DN.cube" ... done
Writing "48/592nano_LUMO_DN.dx" ... done
================================================================================

================== Local Density of States (LDOS) calculation ==================
Writing "48/592nano_UP_LDOS.txt" ...  done
================================================================================

================== Local Density of States (LDOS) calculation ==================
Writing "48/592nano_DN_LDOS.txt" ...  done
================================================================================
 
=============== Density of States (DOS) calculation for UP spin ================
Writing "48/592nano_UP_DOS.txt" ...  done
================================================================================
 
============== Density of States (DOS) calculation for DOWN spin ===============
Writing "48/592nano_DN_DOS.txt" ...  done
================================================================================
 
Writing bands to file "48/592nano.val_bands" ... done
 
================ Projected Density of States (pDOS) calculation ================
 
Constructing AM resolved functions  ...... done
Writing NGWF plot files in formats: CUBE DX ...  done
 
Performing overlap integrals ...  done
 
Computing pDOS weights ...  done
 
All bands spilling parameter =   3.43 %
Occupancy-weighted spilling parameter =   0.78 %
 
 => Outputting data for OptaDOS <=
 
Writing pDOS weights to file "48/592nano.val_pdos_bin" ... done
 
Writing band gradients to file "48/592nano.val_dome_bin" ... done
 
Writing Castep output cell file to "48/592nano-out.cell" ... done
 
 => Computing Gaussian smeared pDOS for UP spin<= 
Writing "48/592nano_UP_PDOS.txt" ...  done
 
 => Computing Gaussian smeared pDOS for DOWN spin<= 
Writing "48/592nano_DN_PDOS.txt" ...  done
 
 => Computing Occupancy-weighted Gaussian smeared pDOS for UP spin<= 
Writing "48/592nano_occ_UP_PDOS.txt" ...  done
  => Band centres for UP spin channel: 
 S band centre of group 1:  -19.394895 eV
 P band centre of group 1:   -8.322300 eV
  Band centres for UP spin channel done. <= 
  => Integrated number of electrons in each AM band for UP spin channel: 
 S num electrons of group 1:  314.185443
 P num electrons of group 1:  771.333273
  Integrated number of electrons for UP spin channel done. <= 
 
 => Computing Occupancy-weighted Gaussian smeared pDOS for DOWN spin<= 
Writing "48/592nano_occ_DN_PDOS.txt" ...  done
  => Band centres for DOWN spin channel: 
 S band centre of group 1:  -19.394895 eV
 P band centre of group 1:   -8.322300 eV
  Band centres for DOWN spin channel done. <=
  => Integrated number of electrons in each AM band for DOWN spin channel: 
 S num electrons of group 1:  314.185443
 P num electrons of group 1:  771.333273
  Integrated number of electrons for DOWN spin channel done. <=
================================================================================

------------------------------ TIMING INFORMATION ------------------------------
AVERAGE TIME:    9641.193s on    160 proc(s)                                    
TOTAL TIME:      9641.245s on    160 proc(s)                                    
================= AVERAGE TIMINGS FROM ALL PROCS (CUMULATIVE) ==================
|| TAG                                    #calls    cpu time   %total  Gflops ||
|| work_imbalance                       :     1        0.00s   0.000%  ------ ||
|| paw_tcore_density                    :     1        0.01s   0.000%  ------ ||
|| sparse_set_to_garbage                :   264        0.01s   0.000%  ------ ||
|| paw_dij_hartree                      :   287        0.01s   0.000%  ------ ||
|| paw_sphere_density_on_grid           :     1        0.01s   0.000%  ------ ||
|| basis_extract_function_from_box      :   428        0.03s   0.000%  ------ ||
|| ngwfs_initialise_from_radial         :     2        0.03s   0.000%  ------ ||
|| ewald_calculate_energy               :     1        0.08s   0.001%  ------ ||
|| pseudo_make_structure_factor         :     1        0.24s   0.003%  ------ ||
|| paw_dataset_init                     :     3        0.28s   0.003%  ------ ||
|| paw_tcore_hartree_on_grid            :     1        0.44s   0.005%  ------ ||
|| density_init_guess_real              :     1        0.68s   0.007%  ------ ||
|| dense_normal_eigensolve              :     1        0.93s   0.010%  ------ ||
|| sparse_init                          :     1        1.09s   0.011%  ------ ||
|| restart_kernel_write                 :    16        1.35s   0.014%  ------ ||
|| paw_species_calc_proj_prec_mat       :     1        1.52s   0.016%  ------ ||
|| augmentation_screen_dij              :   201        3.09s   0.032%  ------ ||
|| sw_init                              :     1        5.01s   0.052%  ------ ||
|| ngwf_gradient_coeffs                 :    15        7.77s   0.081%  ------ ||
|| sparse_embed_hotelling_invert_embed  :    30        8.13s   0.084%  ------ ||
|| basis_copy_function_to_box           :  8664        8.73s   0.091%  ------ ||
|| paw_dij_xc                           :   287        9.06s   0.094%  ------ ||
|| hartree_on_grid                      :   196       12.71s   0.132%  ------ ||
|| fourier_apply_box_pair               :  1077       15.65s   0.162%  1.819k ||
|| aug_nonlocal_mat                     :   272       16.53s   0.171%  ------ ||
|| projectors_init_fftbox_recip         :    92       23.43s   0.243%  ------ ||
|| augmentation_density_on_grid         :   196       26.61s   0.276%  ------ ||
|| sparse_trace                         :  8470       27.11s   0.281%  ------ ||
|| basis_dot_function_with_box          : 2.418M      46.51s   0.482%  ------ ||
|| projectors_func_ovlp_box             :    31       55.24s   0.573%  ------ ||
|| integrals_kinetic                    :    30       67.61s   0.701%  ------ ||
|| eigenstates_pdos                     :     1       71.67s   0.743%  ------ ||
|| hamiltonian_energy_components        :     3      111.47s   1.156%  ------ ||
|| function_ops_brappd_ketppd           :    62      118.34s   1.227%  ------ ||
|| eigenstates_calculate                :     1      138.45s   1.436%  ------ ||
|| dense_eigensolve                     :   322      163.00s   1.691%  ------ ||
|| basis_add_function_to_box            : 6.218M     171.02s   1.774%  ------ ||
|| fourier_apply_cell_forward           :  7216      178.52s   1.852% 140.690 ||
|| sparse_product                       : 11888      232.71s   2.414%  ------ ||
|| restart_ngwfs_tightbox_output        :    14      233.55s   2.422%  ------ ||
|| fourier_apply_cell_backward          :  7997      265.90s   2.758% 104.678 ||
|| cell_grid_deposit_box_real           : 14597      279.71s   2.901%  ------ ||
|| cell_grid_extract_box_real           :  5546      397.48s   4.123%  ------ ||
|| integrals_locpot_mat_els_batch       :   334      436.54s   4.528%  ------ ||
|| density_batch_row_sums               :   392      440.32s   4.567%  ------ ||
|| projectors_gradient_batch            :    30      493.19s   5.115%  ------ ||
|| edft_diag_ngwf_ham                   :   320      500.03s   5.186%  ------ ||
|| xc_energy_potential                  :   195      502.72s   5.214%  ------ ||
|| density_fftbox_deposit_to_cell       :  6664      574.12s   5.955%  ------ ||
|| density_fftbox_interpolate_multiply  :  6664      574.54s   5.959%  ------ ||
|| fourier_apply_box                    : 28966      598.66s   6.209%  4.141k ||
|| nlxc_vdw_energy                      :   390      673.60s   6.987%  ------ ||
|| edft_apply_smearing_operator         :   160      779.57s   8.086%  ------ ||
|| potential_apply_to_ngwf_batch        :   334      826.88s   8.576%  ------ ||
|| properties_calculate                 :     1      933.16s   9.679%  ------ ||
|| projectors_grad_precond_batch        :    30     1256.30s  13.031%  ------ ||
|| integrals_locpot_dbl_grid            :   167     1266.95s  13.141%  ------ ||
|| density_batch_interp_deposit         :   392     1504.27s  15.603%  ------ ||
|| ngwf_gradient_build_batch            :    30     1930.76s  20.026%  ------ ||
|| density_on_dbl_grid                  :   196     2079.83s  21.572%  ------ ||
|| ngwf_gradient_batch                  :    30     2105.98s  21.844%  ------ ||
|| hamiltonian_lhxc_calculate           :   191     2660.41s  27.594%  ------ ||
|| ngwf_gradient_lnv                    :    15     3037.47s  31.505%  ------ ||
|| edft_calculate                       :    15     4640.84s  48.136%  ------ ||
|| ngwf_cg_optimise                     :     1     8677.37s  90.003%  ------ ||
|| total_time                           :     1     9641.19s 100.000%  ------ ||
================================================================================
==================== AVERAGE TIMINGS FROM ALL PROCS (SELF) =====================
++ TAG                                    #calls    cpu time   %total  Gflops ++
++ nlxc_vdw_energy                      :   390       -5.18s  -0.054%  ------ ++
++ work_imbalance                       :     1        0.00s   0.000%  ------ ++
++ paw_tcore_density                    :     1        0.00s   0.000%  ------ ++
++ paw_sphere_density_on_grid           :     1        0.01s   0.000%  ------ ++
++ paw_tcore_hartree_on_grid            :     1        0.01s   0.000%  ------ ++
++ sparse_set_to_garbage                :   264        0.01s   0.000%  ------ ++
++ paw_dij_hartree                      :   287        0.01s   0.000%  ------ ++
++ basis_extract_function_from_box      :   428        0.03s   0.000%  ------ ++
++ ngwfs_initialise_from_radial         :     2        0.03s   0.000%  ------ ++
++ sparse_embed_hotelling_invert_embed  :    30        0.04s   0.000%  ------ ++
++ ngwf_gradient_coeffs                 :    15        0.06s   0.001%  ------ ++
++ ewald_calculate_energy               :     1        0.08s   0.001%  ------ ++
++ pseudo_make_structure_factor         :     1        0.24s   0.003%  ------ ++
++ paw_dataset_init                     :     3        0.28s   0.003%  ------ ++
++ density_init_guess_real              :     1        0.37s   0.004%  ------ ++
++ hartree_on_grid                      :   196        0.71s   0.007%  ------ ++
++ aug_nonlocal_mat                     :   272        0.87s   0.009%  ------ ++
++ dense_normal_eigensolve              :     1        0.93s   0.010%  ------ ++
++ sparse_init                          :     1        1.09s   0.011%  ------ ++
++ paw_species_calc_proj_prec_mat       :     1        1.27s   0.013%  ------ ++
++ restart_kernel_write                 :    16        1.35s   0.014%  ------ ++
++ hamiltonian_energy_components        :     3        2.02s   0.021%  ------ ++
++ main_program_(onetep.F90)            :     1        2.08s   0.022%  ------ ++
++ augmentation_screen_dij              :   201        2.49s   0.026%  ------ ++
++ integrals_locpot_dbl_grid            :   167        3.53s   0.037%  ------ ++
++ sw_init                              :     1        5.01s   0.052%  ------ ++
++ augmentation_density_on_grid         :   196        6.87s   0.071%  ------ ++
++ basis_copy_function_to_box           :  8664        8.73s   0.091%  ------ ++
++ paw_dij_xc                           :   287        9.06s   0.094%  ------ ++
++ fourier_apply_box_pair               :  1077       15.65s   0.162%  1.819k ++
++ projectors_init_fftbox_recip         :    92       23.43s   0.243%  ------ ++
++ sparse_trace                         :  8470       27.11s   0.281%  ------ ++
++ projectors_func_ovlp_box             :    31       32.81s   0.340%  ------ ++
++ basis_dot_function_with_box          : 2.418M      46.51s   0.482%  ------ ++ (!) overhead: ~   5.6%
++ edft_calculate                       :    15       48.67s   0.505%  ------ ++
++ eigenstates_calculate                :     1       49.88s   0.517%  ------ ++
++ integrals_kinetic                    :    30       57.74s   0.599%  ------ ++
++ eigenstates_pdos                     :     1       58.45s   0.606%  ------ ++
++ xc_energy_potential                  :   195       75.91s   0.787%  ------ ++
++ ngwf_gradient_build_batch            :    30       76.95s   0.798%  ------ ++
++ hamiltonian_lhxc_calculate           :   191      100.43s   1.042%  ------ ++
++ ngwf_gradient_batch                  :    30      112.31s   1.165%  ------ ++
++ function_ops_brappd_ketppd           :    62      118.34s   1.227%  ------ ++
++ density_on_dbl_grid                  :   196      135.24s   1.403%  ------ ++
++ dense_eigensolve                     :   322      163.00s   1.691%  ------ ++
++ basis_add_function_to_box            : 6.218M     171.02s   1.774%  ------ ++ (!) overhead: ~   3.9%
++ fourier_apply_cell_forward           :  7216      178.52s   1.852% 140.690 ++
++ ngwf_cg_optimise                     :     1      196.62s   2.039%  ------ ++
++ density_fftbox_interpolate_multiply  :  6664      219.38s   2.275%  ------ ++
++ sparse_product                       : 11888      232.71s   2.414%  ------ ++
++ restart_ngwfs_tightbox_output        :    14      233.53s   2.422%  ------ ++
++ edft_apply_smearing_operator         :   160      263.01s   2.728%  ------ ++
++ fourier_apply_cell_backward          :  7997      265.90s   2.758% 104.678 ++
++ cell_grid_deposit_box_real           : 14597      279.71s   2.901%  ------ ++
++ density_fftbox_deposit_to_cell       :  6664      295.87s   3.069%  ------ ++
++ density_batch_interp_deposit         :   392      298.42s   3.095%  ------ ++
++ density_batch_row_sums               :   392      334.33s   3.468%  ------ ++
++ edft_diag_ngwf_ham                   :   320      338.09s   3.507%  ------ ++
++ cell_grid_extract_box_real           :  5546      397.48s   4.123%  ------ ++
++ integrals_locpot_mat_els_batch       :   334      399.09s   4.139%  ------ ++
++ projectors_gradient_batch            :    30      477.72s   4.955%  ------ ++
++ potential_apply_to_ngwf_batch        :   334      506.18s   5.250%  ------ ++
++ properties_calculate                 :     1      535.28s   5.552%  ------ ++
++ fourier_apply_box                    : 28966      598.66s   6.209%  4.141k ++
++ ngwf_gradient_lnv                    :    15      923.71s   9.581%  ------ ++
++ projectors_grad_precond_batch        :    30     1236.60s  12.826%  ------ ++
================================================================================
(!) WARNING: You're wasting precious cycles calling timer. 
             Each pair of timer_clock calls itself cost   1.08 microseconds!
Overhead of generating timer report: 
- 0 ms averaging over threads,
- 19 ms ensuring consistency across MPI ranks,
- 0 ms printing in order.

Job completed: 15-12-2021 11:14 (-0000)

