 +---------------------------------------------------------------+
 |                                                               |
 |        ####### #     # ####### ####### ####### ######         |
 |        #     # ##    # #          #    #       #     #        |
 |        #     # # #   # #          #    #       #     #        |
 |        #     # #  #  # #####      #    #####   ######         |
 |        #     # #   # # #          #    #       #              |
 |        #     # #    ## #          #    #       #              |
 |        ####### #     # #######    #    ####### #              |
 |                                                               |
 |        Linear-Scaling Ab Initio Total Energy Program          |
 |                                                               |
 |          Release for academic collaborators of ODG            |
 |                                             Version 5.3.2.12  |
 |                                                               |
 +---------------------------------------------------------------+
 |                                                               |
 |  Authors:                                                     |
 |  Jacek Dziedzic, Peter D. Haynes, Nicholas D. M. Hine,        |
 |  Arash. A. Mostofi, Mike C. Payne and Chris-Kriton Skylaris   |
 |                                                               |
 |  Contributors:                                                |
 |  J. Aarons, L. Andrinopoulos, P. W. Avraam, R. A. Bell,       |
 |  A. Bhandari, G. A. Bramley, R. J. Charlton, S. J. Clark,     |
 |  R. J. Clements, G. C. Constantinescu, F. Corsetti,           |
 |  N. Corsini, O. Dieguez, S. M. M. Dubois, K. K. B. Duff,      |
 |  J. M. Escartin, A. Greco, H. Helal, Q. O. Hill, L. P. Lee,   |
 |  J.-H. Li, E. B. Linscott, G. Moynihan, D. D. O`Regan,        |
 |  O. K. Okan, M. J. S. Phipps, C. J. Pickard,                  |
 |  J. C. A. Prentice, M. I. J. Probert, L. E. Ratcliff,         |
 |  M. Robinson, A. Ruiz Serrano, J. S. Spencer, E. W. Tait,     |
 |  G. Teobaldi, D. Turban, V. Vitale, K. A. Wilkinson,          |
 |  C. Weber, J. C. Womack, N. Yeung and T. J. Zuehlsdorff       |
 |                                                               |
 |                                   Copyright (c) 2004-2020     |
 |                                                               |
 |  Please cite:                                                 |
 |  "Introducing ONETEP: Linear-scaling density functional       |
 |   simulations on parallel computers".                         |
 |   C.-K. Skylaris, P. D. Haynes, A. A. Mostofi, M. C. Payne.   |
 |   J. Chem. Phys. 122 084119 (2005).                           |
 |                                                               |
 |          in all publications arising from your use of ONETEP. |
 |                                                               |
 +---------------------------------------------------------------+
 |                                                               |
 |   ONETEP is based on developments described in the following  |
 |   publications:                                               |
 |                                                               |
 |  "Nonorthogonal generalized Wannier function pseudopotential  |
 |   plane-wave method".                                         |
 |   C.-K. Skylaris, A. A. Mostofi, P. D. Haynes, O. Dieguez,    |
 |   M. C. Payne.                                                |
 |   Phys. Rev. B 66 035119 (2002).                              |
 |                                                               |
 |  "Preconditioned iterative minimization for linear-scaling    |
 |   electronic structure calculations".                         |
 |   A. A. Mostofi, P. D. Haynes, C.-K. Skylaris, M. C. Payne.   |
 |   J. Chem. Phys. 119(17), pp.8842-8848 (2003).                |
 |                                                               |
 |  "Total-energy calculations on a real space grid with         |
 |   localized functions and a plane-wave basis".                |
 |   A. A. Mostofi, C.-K. Skylaris, P. D. Haynes, M. C. Payne.   |
 |   Comput. Phys. Commun. 147, pp.788-802 (2002).               |
 |                                                               |
 |  "Accurate kinetic energy evaluation in electronic structure  |
 |   calculations with localized functions on real space grids"  |
 |   C.-K. Skylaris, A. A. Mostofi, P. D. Haynes, C. J. Pickard, |
 |   M. C. Payne.                                                |
 |   Comput. Phys. Commun. 140, pp.315-322 (2001).               |
 |                                                               |
 |  "Accurate ionic forces and geometry optimization in linear-  |
 |   scaling density-functional theory with local orbitals"      |
 |   N. D. M. Hine, M. Robinson, P. D. Haynes, C.-K. Skylaris,   |
 |   M. C. Payne, and A. A. Mostofi.                             |
 |   Phys. Rev. B 83 195102 (2011).                              |
 |                                                               |
 +---------------------------------------------------------------+

Job started: 30-06-2020 21:01 (+0100)
 
Reading parameters from file "24/592nano.dat" ...... done

If your calculation crashes here, before "Checking processes and threads..."
is displayed, then your stack size is insufficient.
If so, use "ulimit -s unlimited" at runtime.
You can disable this check with "check_stack_size F".

Checking processes and threads...
   Determining the default number of threads...
      No default threads set at compilation time: defaulting to 1.
      OpenMP library call suggests 4 threads.
      Hybrid MPI-OpenMP compilation detected.
      Number of MPI processes > 1.
      OMP_NUM_THREADS environment variable present and
      its value matches the one obtained from the OpenMP library call.
      Using this value as default.
      Default threads: 4
      Default applies to threads_max and threads_num_fftboxes.
      Settings in the input file override this default.
   ... done

   Running with 150 MPI processes.
   There are 10 MPI processes running on the same node as the root process.
   Each MPI process is using: 
               1 threads for simulation cell FFTs.
               1 threads for parallel FFT box operations.
               4 threads for loops over batched FFT box operations.
               4 threads in other parallel regions.
... done

Basic input checks...
Resetting ngwf_cg_rotate to TRUE for EDFT calculations
... done

Reading geometry and species blocks from file "24/592nano.dat" ...    
  Number of PPD points along a3 set to 1.  This is 
  the default value, it may have been provided also in the input file.
... done
 Writing xyz coordinates to file "24/592nano.xyz" ... done


--------------------------------------------------------------------------------
---------------------------------- INPUT FILE ----------------------------------
--------------------------------------------------------------------------------

task : singlepoint                                                              
write_nbo T                                                                     
ddec_classical_hirshfeld T                                                      
do_properties : true                                                            
dx_format T                                                                     
edft T                                                                          
output_detail VERBOSE                                                           
write_xyz T                                                                     
dispersion 4                                                                    
xc_functional PBE                                                               
cutoff_energy 830 eV                                                            
paw T                                                                           
geom_disp_tol 0.015 bohr                                                        
geom_energy_tol 1.5E-6 hartree                                                  
geom_force_tol 0.01 "ha/bohr"                                                   
%BLOCK SPECIES_LDOS_GROUPS                                                      
C                                                                               
H                                                                               
Li                                                                              
%ENDBLOCK SPECIES_LDOS_GROUPS                                                   
EDFT_MAXIT 30                                                                   
pdos_max_l = 2                                                                  
dos_smear  0.1 eV                                                               
popn_calculate T                                                                
PDOS_PSEUDOATOMIC T                                                             
PDOS_REDUCE_SWS F                                                               
PDOS_CONSTRUCT_BASIS F                                                          
PDOS_LOWDIN T                                                                   
PDOS_ORTH_ATOM_BLOCKS F                                                         
PDOS_LCAO_OPTIMIZE F                                                            
pdos_optados_output T                                                           
homo_plot 0                                                                     
lumo_plot 0                                                                     
homo_dens_plot -1                                                               
lumo_dens_plot -1                                                               
%BLOCK SPECIES                                                                  
C C 6 4 9.0                                                                     
H H 1 1 9.0                                                                     
Li Li 3 5 9.0                                                                   
%ENDBLOCK SPECIES                                                               
%BLOCK SPECIES_POT                                                              
C "~/pp/paw/c_pbe_abinit.paw"                                                   
H "~/pp/paw/h_pbe_abinit.paw"                                                   
Li "~/pp/paw/li_pbe_abinit.paw"                                                 
%ENDBLOCK SPECIES_POT                                                           
%BLOCK SPECIES_ATOMIC_SET                                                       
C "SOLVE conf=2s2 2p2"                                                          
H "SOLVE conf=1s1"                                                              
Li "SOLVE conf=1s2 2s1 2p0"                                                     
%ENDBLOCK SPECIES_ATOMIC_SET                                                    
%BLOCK LATTICE_CART                                                             
94.486315650000      0.000000000000       0.000000000000                        
0.000000000000       94.486315650000      0.000000000000                        
0.000000000000       0.000000000000       94.486315650000                       
%ENDBLOCK LATTICE_CART                                                          
%BLOCK POSITIONS_ABS                                                            
C 45.471864 50.724357 30.688417                                                 
C 45.409782 50.567572 36.805269                                                 
C 46.822108 53.056975 30.722864                                                 
C 48.100800 50.568618 36.817123                                                 
C 49.516644 48.394339 30.714832                                                 
C 49.444387 48.238635 36.804017                                                 
C 50.863820 50.724202 30.744824                                                 
C 52.134902 48.239626 36.787920                                                 
C 45.478170 55.392336 30.687217                                                 
C 45.422338 55.225211 36.829709                                                 
C 46.833733 57.725649 30.653313                                                 
C 48.110934 55.228480 36.835733                                                 
C 49.517191 53.053695 30.749115                                                 
C 49.449508 52.897606 36.829911                                                 
C 50.871893 55.386498 30.727449                                                 
C 52.140691 52.895619 36.826255                                                 
C 45.390302 50.520713 42.986701                                                 
C 45.391181 50.420404 49.065581                                                 
C 46.738061 52.854098 42.979661                                                 
C 48.086989 50.424308 49.032765                                                 
C 49.433813 48.188591 42.922029                                                 
C 49.436065 48.088105 49.058692                                                 
C 50.781776 50.516385 42.931564                                                 
C 52.132038 48.090583 49.127102                                                 
C 45.390236 55.185810 42.982250                                                 
C 45.390674 55.094723 49.100538                                                 
C 46.738893 57.518625 42.951368                                                 
C 48.082946 55.099371 49.052735                                                 
C 49.433623 52.847240 42.962450                                                 
C 49.428826 52.763402 49.019649                                                 
C 50.786405 55.176008 42.969893                                                 
C 52.124810 52.768756 49.052534                                                 
C 57.616712 48.394973 30.670546                                                 
C 57.510859 48.234110 36.719111                                                 
C 58.964122 50.716654 30.683178                                                 
C 60.229339 48.236547 36.678285                                                 
C 57.519992 48.186809 42.671296                                                 
C 57.501373 48.094764 49.547777                                                 
C 58.879078 50.520364 42.616590                                                 
C 60.223656 48.094676 49.819213                                                 
C 53.563633 50.722212 30.740564                                                 
C 53.479023 50.565360 36.798409                                                 
C 54.912799 53.049880 30.754151                                                 
C 56.174123 50.563504 36.762850                                                 
C 53.482073 50.515856 42.886756                                                 
C 53.474118 50.433891 49.144728                                                 
C 54.835499 52.845089 42.885997                                                 
C 56.163190 50.443281 49.363525                                                 
C 57.628779 43.748120 30.655838                                                 
C 57.512526 43.576321 36.684459                                                 
C 58.965078 46.065516 30.628627                                                 
C 60.229797 43.595118 36.666152                                                 
C 57.515390 43.521171 42.664464                                                 
C 57.530501 43.433209 49.561453                                                 
C 58.864419 45.830176 42.615651                                                 
C 60.229628 43.445767 49.642302                                                 
C 53.568339 46.069893 30.704054                                                 
C 53.478735 45.909910 36.748949                                                 
C 54.914691 48.398436 30.706213                                                 
C 56.172282 45.911287 36.716555                                                 
C 53.470571 45.857608 42.805532                                                 
C 53.477462 45.759920 49.249113                                                 
C 54.822484 48.187867 42.810882                                                 
C 56.173485 45.767206 49.439643                                                 
C 57.617553 57.705821 30.795433                                                 
C 57.533415 57.546239 36.858618                                                 
C 58.961119 60.088260 30.782066                                                 
C 60.248448 57.522801 36.833213                                                 
C 57.527502 57.502941 42.892883                                                 
C 57.507054 57.464864 49.129976                                                 
C 58.865715 59.855304 42.951134                                                 
C 60.233309 57.453236 49.235681                                                 
C 45.499737 64.737534 30.519410                                                 
C 45.470824 64.554194 36.687891                                                 
C 46.899669 67.088103 30.527843                                                 
C 48.144256 64.562609 36.934630                                                 
C 49.536005 62.377381 30.339625                                                 
C 49.492233 62.216215 36.974666                                                 
C 50.916176 64.742669 30.053229                                                 
C 52.190247 62.209792 37.069652                                                 
C 45.391883 64.522809 42.800487                                                 
C 45.408140 64.424291 49.794434                                                 
C 46.784530 66.865343 42.724337                                                 
C 48.091784 64.445691 49.726369                                                 
C 49.434637 62.156551 42.800251                                                 
C 49.448658 62.112244 49.444954                                                 
C 50.817489 64.507862 42.637549                                                 
C 52.139515 62.120582 49.417375                                                 
C 53.586868 60.037988 30.532968                                                 
C 53.520718 59.877753 36.951555                                                 
C 54.955791 62.400029 30.393406                                                 
C 56.211097 59.868311 36.941260                                                 
C 53.487106 59.825013 42.949516                                                 
C 53.463876 59.793690 49.156304                                                 
C 54.852757 62.172804 42.935317                                                 
C 56.167148 59.797750 49.091071                                                 
C 57.612039 53.034499 30.745124                                                 
C 57.517595 52.889756 36.770032                                                 
C 58.963651 55.373454 30.802025                                                 
C 60.236072 52.881136 36.730222                                                 
C 57.531229 52.850345 42.749099                                                 
C 57.487569 52.787818 49.435066                                                 
C 58.883964 55.194647 42.726190                                                 
C 60.213109 52.796421 49.723934                                                 
C 45.494386 60.060382 30.584781                                                 
C 45.442505 59.880821 36.790603                                                 
C 46.857376 62.386440 30.483738                                                 
C 48.133913 59.885519 36.868289                                                 
C 49.530907 57.720858 30.652713                                                 
C 49.467080 57.557239 36.865057                                                 
C 50.889079 60.049418 30.498664                                                 
C 52.157426 57.553439 36.876225                                                 
C 45.393380 59.851215 42.910112                                                 
C 45.392750 59.764017 49.325172                                                 
C 46.748350 62.173114 42.834611                                                 
C 48.088410 59.776340 49.252401                                                 
C 49.434105 57.505995 42.954320                                                 
C 49.429658 57.443858 49.097974                                                 
C 50.788026 59.835774 42.914122                                                 
C 52.121917 57.452644 49.066524                                                 
C 53.564226 55.380036 30.743645                                                 
C 53.490055 55.222160 36.842249                                                 
C 54.909819 57.717809 30.700931                                                 
C 56.185250 55.217188 36.822580                                                 
C 53.478664 55.172238 42.945281                                                 
C 53.465999 55.109623 49.064098                                                 
C 54.827790 57.506293 42.947093                                                 
C 56.156292 55.105597 49.206305                                                 
H 27.260096 41.373064 29.792820                                                 
H 28.247903 39.479986 36.812984                                                 
H 27.204616 41.184321 42.873653                                                 
H 28.239303 39.323219 50.210801                                                 
H 41.849809 30.302174 29.770703                                                 
C 42.895771 32.086414 29.787027                                                 
H 44.497756 30.128220 37.016581                                                 
H 41.761981 30.065657 42.854049                                                 
C 42.796569 31.856336 42.888945                                                 
H 44.420256 29.969098 49.411348                                                 
H 29.599879 37.287134 29.682895                                                 
C 30.642628 39.070334 29.715293                                                 
H 32.275339 37.144678 36.966905                                                 
H 33.714885 34.894253 29.577669                                                 
C 34.738221 36.688610 29.612534                                                 
H 29.519309 37.118828 42.869118                                                 
C 30.553487 38.908905 42.853800                                                 
H 32.284275 36.998906 50.370629                                                 
H 33.572317 34.739785 42.854372                                                 
C 34.614450 36.524263 42.870766                                                 
H 37.816611 32.599071 29.460644                                                 
C 38.827165 34.403408 29.495210                                                 
H 40.427499 32.447164 37.081275                                                 
H 37.679830 32.379044 42.807723                                                 
C 38.701326 34.175396 42.851138                                                 
H 40.370263 32.308205 50.069709                                                 
H 46.499239 30.304701 30.277867                                                 
H 46.440608 30.106999 42.972780                                                 
H 25.843657 48.210066 36.952262                                                 
C 27.909671 48.217462 36.923962                                                 
H 25.831957 48.044988 50.153216                                                 
C 27.899014 48.064332 50.111845                                                 
H 25.882440 43.518531 36.885580                                                 
H 27.254772 46.092369 29.594329                                                 
C 27.949921 43.515033 36.864885                                                 
H 25.872102 43.361798 50.227092                                                 
H 27.194444 45.835438 42.677866                                                 
C 27.940307 43.361724 50.201071                                                 
H 25.882043 57.628099 37.063352                                                 
H 27.321787 60.107117 29.691877                                                 
C 27.950837 57.628440 37.061989                                                 
H 25.822498 57.441511 49.392387                                                 
H 27.200436 59.839015 43.159005                                                 
C 27.888183 57.436004 49.461290                                                 
H 25.842815 52.940458 37.032862                                                 
H 27.306080 55.441787 29.559677                                                 
C 27.909865 52.926456 37.002245                                                 
H 25.802312 52.736965 49.810714                                                 
H 27.200299 55.189747 43.134241                                                 
C 27.870247 52.737553 49.786716                                                 
C 29.326372 41.371895 29.784701                                                 
C 29.263843 41.279406 36.821220                                                 
C 30.605147 43.737685 29.806690                                                 
C 31.955185 41.212439 36.840667                                                 
C 33.339016 38.975095 29.696489                                                 
C 33.317121 38.929992 36.904547                                                 
C 34.696100 41.376604 29.834814                                                 
C 35.980270 38.866121 37.063310                                                 
C 29.322012 46.087116 29.674908                                                 
C 29.220902 45.887612 36.940506                                                 
C 30.625641 48.410640 29.600017                                                 
C 31.942300 45.874799 36.887977                                                 
C 33.347196 43.713482 29.891056                                                 
C 33.292658 43.557264 36.847048                                                 
C 34.698884 46.067713 29.980594                                                 
C 35.993351 43.558441 36.840064                                                 
C 29.271971 41.162118 42.859953                                                 
C 29.254375 41.125102 50.191997                                                 
C 30.560567 43.528894 42.827999                                                 
C 31.946978 41.071183 50.158804                                                 
C 33.247619 38.821161 42.800568                                                 
C 33.318627 38.788178 50.260508                                                 
C 34.599986 41.184878 42.833012                                                 
C 35.980235 38.740460 50.279626                                                 
C 29.262284 45.840789 42.754020                                                 
C 29.213357 45.740853 50.163274                                                 
C 30.541851 48.197781 42.700023                                                 
C 31.931741 45.734417 50.013657                                                 
C 33.267353 43.511177 42.854204                                                 
C 33.281186 43.418337 50.013591                                                 
C 34.615003 45.854641 42.899322                                                 
C 35.983102 43.419278 49.862899                                                 
C 41.468386 39.064759 29.833515                                                 
C 41.400529 38.897520 36.943752                                                 
C 42.802012 41.400629 30.147660                                                 
C 44.090664 38.905409 36.912467                                                 
C 41.364581 38.849452 42.949536                                                 
C 41.401487 38.756652 49.850587                                                 
C 42.702989 41.191150 43.006658                                                 
C 44.076351 38.748662 49.566430                                                 
C 37.417280 41.378049 29.907378                                                 
C 37.342694 41.237026 36.922259                                                 
C 38.744406 43.718236 30.148046                                                 
C 40.038553 41.232892 36.874455                                                 
C 37.313990 41.183771 42.922714                                                 
C 37.334439 41.105439 49.983601                                                 
C 38.659729 43.519648 42.992075                                                 
C 40.033889 41.082060 49.756564                                                 
C 41.482010 34.382088 29.589511                                                 
C 41.446408 34.244121 37.043407                                                 
C 42.850425 36.732430 29.669799                                                 
C 44.108516 34.213418 37.023881                                                 
C 41.368281 34.150011 42.829714                                                 
C 41.401780 34.099046 49.979970                                                 
C 42.735524 36.504382 42.903924                                                 
C 44.060406 34.046524 49.630498                                                 
C 37.423903 36.657191 29.543995                                                 
C 37.367700 36.576261 36.977353                                                 
C 38.783180 39.042074 29.735809                                                 
C 40.033182 36.525801 37.009897                                                 
C 37.290521 36.460208 42.862923                                                 
C 37.367043 36.446235 50.151985                                                 
C 38.663864 38.840538 42.929088                                                 
C 40.038975 36.381692 50.169870                                                 
C 41.427550 48.392137 30.505818                                                 
C 41.374158 48.232938 36.775694                                                 
C 42.773717 50.725926 30.608741                                                 
C 44.064306 48.236102 36.788895                                                 
C 41.351098 48.189980 43.014636                                                 
C 41.351717 48.082445 49.237950                                                 
C 42.695848 50.522467 43.010037                                                 
C 44.046443 48.082371 49.130922                                                 
C 29.373593 55.431501 29.654561                                                 
C 29.222396 55.251551 37.090959                                                 
C 30.676201 57.758413 29.733672                                                 
C 31.944557 55.254063 37.030093                                                 
C 33.380428 53.093989 29.869695                                                 
C 33.293125 52.902760 36.919461                                                 
C 34.720016 55.416149 29.999171                                                 
C 35.990955 52.894026 36.839490                                                 
C 29.268583 55.185020 43.133945                                                 
C 29.159418 55.049038 49.559254                                                 
C 30.556935 57.492276 43.131478                                                 
C 31.903323 55.078819 49.530893                                                 
C 33.272445 52.862969 43.036550                                                 
C 33.262142 52.740113 49.572278                                                 
C 34.611855 55.183235 43.067492                                                 
C 35.955217 52.747261 49.434608                                                 
C 37.390366 50.733895 30.283565                                                 
C 37.332123 50.562256 36.785091                                                 
C 38.738791 53.070152 30.391437                                                 
C 40.028493 50.564105 36.779309                                                 
C 37.310925 50.523455 43.019583                                                 
C 37.306957 50.415451 49.400536                                                 
C 38.656175 52.860638 43.032754                                                 
C 40.004474 50.417267 49.253859                                                 
C 41.441405 43.723584 30.277517                                                 
C 41.380156 43.565140 36.805543                                                 
C 42.779397 46.058247 30.477412                                                 
C 44.072824 43.570803 36.797842                                                 
C 41.350857 43.519598 43.020088                                                 
C 41.364956 43.412081 49.458247                                                 
C 42.697791 45.857212 43.015621                                                 
C 44.058039 43.411458 49.292835                                                 
C 29.350040 50.754918 29.727141                                                 
C 29.186565 50.570624 36.974284                                                 
C 30.654303 53.104723 29.601511                                                 
C 31.937602 50.567660 36.901478                                                 
C 33.365161 48.399827 29.863947                                                 
C 33.293172 48.227223 36.856330                                                 
C 34.702557 50.739764 30.020844                                                 
C 35.989639 48.229455 36.788063                                                 
C 29.258680 50.523263 42.903800                                                 
C 29.165930 50.421117 49.945488                                                 
C 30.546536 52.858004 43.040672                                                 
C 31.915789 50.419386 49.789937                                                 
C 33.279496 48.185753 42.860415                                                 
C 33.272584 48.089643 49.811264                                                 
C 34.617592 50.525473 42.979590                                                 
C 35.970083 48.084904 49.578157                                                 
C 37.392074 46.055619 30.185969                                                 
C 37.340066 45.895484 36.790609                                                 
C 38.734503 48.392109 30.348741                                                 
C 40.028173 45.897294 36.780342                                                 
C 37.311682 45.857011 42.976055                                                 
C 37.320974 45.753846 49.599721                                                 
C 38.654283 48.188439 43.008644                                                 
C 40.008132 45.747368 49.411322                                                 
C 45.473496 32.087575 30.071450                                                 
C 45.536505 31.913919 36.960246                                                 
C 46.892056 34.385644 30.168649                                                 
C 48.118208 31.933804 36.852837                                                 
H 49.172408 30.153700 36.826381                                                 
H 50.531750 32.610708 30.606680                                                 
C 45.526724 36.729183 30.010429                                                 
C 45.471977 36.566518 36.944467                                                 
C 46.853950 39.065428 30.279758                                                 
C 48.149017 36.579811 36.827812                                                 
C 49.520566 34.406834 30.452176                                                 
C 49.524103 34.243779 36.796731                                                 
C 50.908853 36.676934 30.569848                                                 
C 52.161314 34.287009 36.715378                                                 
C 45.383449 31.883208 42.957596                                                 
C 45.461121 31.754383 49.434025                                                 
C 46.789362 34.188484 42.965754                                                 
C 48.097592 31.745263 49.310956                                                 
H 49.118035 29.952142 49.200941                                                 
H 50.463897 32.442078 42.858636                                                 
C 45.414506 36.521406 42.963874                                                 
C 45.451111 36.401003 49.506484                                                 
C 46.751386 38.859643 42.963355                                                 
C 48.142568 36.401113 49.393624                                                 
C 49.427578 34.230883 42.903111                                                 
C 49.534833 34.035426 49.389672                                                 
C 50.794243 36.507534 42.802842                                                 
C 52.182526 34.081458 49.584447                                                 
H 53.200153 32.496158 36.707870                                                 
H 53.219021 32.292860 49.623904                                                 
C 57.638312 39.119937 30.695672                                                 
C 57.533231 38.898650 36.658569                                                 
C 58.975079 41.393768 30.648423                                                 
C 60.244209 38.974994 36.671429                                                 
C 57.499757 38.905084 42.506245                                                 
C 57.561469 38.754177 49.805568                                                 
C 58.854977 41.172468 42.638205                                                 
C 60.258215 38.833804 49.727596                                                 
C 45.473250 46.059786 30.576516                                                 
C 45.413550 45.905420 36.789149                                                 
C 46.820517 48.393340 30.677410                                                 
C 48.101235 45.908271 36.788609                                                 
C 49.525573 43.735949 30.631150                                                 
C 49.451792 43.578841 36.768167                                                 
C 50.872054 46.065577 30.695821                                                 
C 52.140846 43.582518 36.738651                                                 
C 45.388960 45.858436 42.986971                                                 
C 45.398397 45.748942 49.144848                                                 
C 46.738424 48.189078 42.965842                                                 
C 48.092757 45.751840 49.099829                                                 
C 49.430796 43.526762 42.893966                                                 
C 49.447939 43.415881 49.172787                                                 
C 50.781746 45.855249 42.875857                                                 
C 52.138733 43.424206 49.260408                                                 
C 53.597121 41.412622 30.713180                                                 
C 53.493619 41.250821 36.702347                                                 
C 54.932789 43.743894 30.689386                                                 
C 56.184126 41.259664 36.676101                                                 
C 53.465415 41.208775 42.659015                                                 
C 53.492327 41.090213 49.476487                                                 
C 54.816128 43.523144 42.713202                                                 
C 56.203387 41.107298 49.623716                                                 
H 57.238866 34.846592 36.657941                                                 
H 58.682238 37.335546 30.750790                                                 
H 57.249373 34.676835 50.000186                                                 
H 58.532566 37.119225 42.393673                                                 
C 45.493375 41.402198 30.317521                                                 
C 45.430274 41.248604 36.823089                                                 
C 46.827551 43.729398 30.528248                                                 
C 48.116340 41.248880 36.784952                                                 
C 49.528024 39.054056 30.525869                                                 
C 49.477687 38.915235 36.769464                                                 
C 50.882135 41.403428 30.650708                                                 
C 52.159511 38.921155 36.707784                                                 
C 45.396759 41.196056 42.986082                                                 
C 45.412592 41.078697 49.335406                                                 
C 46.737179 43.523697 42.967794                                                 
C 48.111257 41.077285 49.255471                                                 
C 49.428676 38.863300 42.871489                                                 
C 49.475099 38.752815 49.363792                                                 
C 50.774583 41.195620 42.815349                                                 
C 52.159164 38.750118 49.512395                                                 
C 53.590022 36.741324 30.629666                                                 
C 53.526877 36.569912 36.682856                                                 
C 54.974406 39.041391 30.722508                                                 
C 56.196299 36.635346 36.654298                                                 
C 53.451981 36.563646 42.590472                                                 
C 53.532013 36.369953 49.701810                                                 
C 54.820188 38.842597 42.439313                                                 
C 56.205023 36.456552 49.867697                                                 
H 61.267268 37.176442 36.690848                                                 
H 62.694141 39.660795 30.643402                                                 
H 61.289934 37.040846 49.724697                                                 
H 62.559148 39.430024 42.745919                                                 
H 28.263375 61.663990 37.031843                                                 
H 28.182891 61.507027 49.457169                                                 
C 29.389708 60.119170 29.692613                                                 
C 29.272917 59.859419 37.048802                                                 
C 30.681309 62.372004 29.645306                                                 
C 31.966254 59.908971 37.048831                                                 
C 33.376288 57.759546 29.855626                                                 
C 33.300994 57.567002 37.015154                                                 
C 34.718976 60.079261 29.824604                                                 
C 36.001950 57.560393 36.929345                                                 
H 29.657326 64.168855 29.612621                                                 
H 32.310712 63.975384 37.105694                                                 
C 33.375259 62.444776 29.650924                                                 
C 33.346532 62.186097 37.037356                                                 
C 34.747873 64.741477 29.696562                                                 
C 36.004073 62.239674 36.972591                                                 
C 29.266714 59.861448 43.107812                                                 
C 29.210543 59.714787 49.505007                                                 
C 30.541926 62.112828 42.989709                                                 
C 31.905963 59.791065 49.648635                                                 
C 33.262488 57.514455 43.077608                                                 
C 33.249949 57.409363 49.567240                                                 
C 34.588864 59.843309 42.985768                                                 
C 35.967169 57.417727 49.581041                                                 
H 29.513784 63.907323 42.944584                                                 
H 32.246218 63.855487 49.981694                                                 
C 33.236559 62.196781 42.916782                                                 
C 33.280212 62.064803 49.926922                                                 
C 34.588322 64.505385 42.924798                                                 
C 35.946969 62.101748 50.121214                                                 
C 41.445755 57.737985 30.495258                                                 
C 41.391478 57.552066 36.791018                                                 
C 42.796182 60.070269 30.509142                                                 
C 44.085177 57.557391 36.806218                                                 
C 41.346779 57.527068 42.973949                                                 
C 41.348709 57.425666 49.343757                                                 
C 42.690653 59.866463 42.941909                                                 
C 44.045282 57.432956 49.227578                                                 
C 37.430127 60.083881 30.050630                                                 
C 37.356916 59.874194 36.857075                                                 
C 38.780257 62.421419 30.087887                                                 
C 40.057234 59.879656 36.702072                                                 
C 37.306061 59.866538 42.960218                                                 
C 37.312046 59.734458 49.772823                                                 
C 38.645982 62.208752 42.981349                                                 
C 40.005453 59.755235 49.598226                                                 
C 41.432732 53.063170 30.563150                                                 
C 41.377137 52.892762 36.807643                                                 
C 42.785817 55.395859 30.607658                                                 
C 44.068542 52.897853 36.810650                                                 
C 41.350578 52.860017 43.017320                                                 
C 41.348655 52.753031 49.188883                                                 
C 42.695730 55.190548 42.995568                                                 
C 44.042876 52.757091 49.100420                                                 
C 37.408175 55.410324 30.249808                                                 
C 37.345919 55.221789 36.865554                                                 
C 38.760235 57.742305 30.296784                                                 
C 40.032782 55.223086 36.831257                                                 
C 37.312649 55.188919 43.031143                                                 
C 37.307276 55.084504 49.403119                                                 
C 38.658687 57.523874 42.994207                                                 
C 40.001070 55.089066 49.296298                                                 
C 41.422917 67.111992 30.400202                                                 
C 41.470152 66.822265 36.358629                                                 
C 42.855642 69.399578 30.592906                                                 
C 44.124553 66.883860 36.581906                                                 
C 41.332035 66.919732 43.020015                                                 
C 41.369157 66.714254 50.072976                                                 
C 42.758506 69.192301 42.753619                                                 
C 44.034875 66.753589 50.116050                                                 
H 37.761082 68.878415 30.034449                                                 
H 40.422807 68.616681 36.386764                                                 
H 37.621617 68.691479 43.172778                                                 
H 40.343631 68.503242 50.239483                                                 
C 41.454421 62.405478 30.364466                                                 
C 41.430892 62.196174 36.514705                                                 
C 42.810121 64.747305 30.461815                                                 
C 44.107781 62.214382 36.642037                                                 
C 41.345636 62.195971 42.977063                                                 
C 41.364339 62.085907 49.714502                                                 
C 42.703601 64.546368 42.919503                                                 
C 44.037848 62.089415 49.586676                                                 
H 33.708452 66.528038 29.651117                                                 
H 33.520084 66.276140 42.863976                                                 
C 37.419525 64.808741 29.898162                                                 
C 37.391762 64.513403 36.530265                                                 
C 38.785435 67.082339 30.085606                                                 
C 40.079803 64.545264 36.286412                                                 
C 37.259930 64.597415 43.058978                                                 
C 37.334450 64.378814 50.116885                                                 
C 38.645783 66.894048 43.261447                                                 
C 39.995976 64.438779 49.974452                                                 
C 61.678955 41.462064 30.610308                                                 
C 61.524463 41.211120 36.673040                                                 
C 62.970530 43.700289 30.566945                                                 
H 63.591005 41.239786 36.691392                                                 
C 61.679391 46.077371 30.583121                                                 
C 61.509280 45.884869 36.655372                                                 
C 62.973413 48.376311 30.580428                                                 
H 63.577303 45.885859 36.638814                                                 
H 65.039678 43.716369 30.553739                                                 
C 61.551686 41.233154 42.703271                                                 
C 61.532871 41.089496 49.623211                                                 
C 62.862918 43.463131 42.663082                                                 
H 63.597323 41.115061 49.520786                                                 
C 61.587492 45.837046 42.542163                                                 
C 61.516026 45.774922 49.746527                                                 
C 62.901429 48.159300 42.480757                                                 
H 63.584360 45.772807 49.818945                                                 
H 64.930680 43.471227 42.671431                                                 
C 61.706244 55.343598 30.793841                                                 
C 61.521710 55.223290 36.771241                                                 
C 62.987662 57.740781 30.836260                                                 
H 63.589201 55.217217 36.782560                                                 
H 65.061989 53.033978 30.685961                                                 
C 61.597946 55.198064 42.503419                                                 
C 61.509445 55.126144 49.630865                                                 
C 62.879134 57.565358 42.729432                                                 
H 63.582470 55.132618 49.696754                                                 
H 64.981834 52.877086 42.231831                                                 
C 61.694975 50.709358 30.643747                                                 
C 61.513597 50.553601 36.683575                                                 
C 62.992995 53.035715 30.683899                                                 
H 65.043493 48.369341 30.566372                                                 
C 61.625034 50.516120 42.430242                                                 
C 61.518122 50.457743 49.683052                                                 
C 62.914308 52.868915 42.331513                                                 
H 64.969151 48.133425 42.419644                                                 
H 41.832907 71.195304 30.640318                                                 
H 44.468281 70.958394 36.670324                                                 
H 41.747777 70.992135 42.619097                                                 
H 44.396732 70.847869 50.097018                                                 
C 45.489850 69.384380 30.675022                                                 
C 45.517418 69.178029 36.739279                                                 
H 46.531945 71.164059 30.805137                                                 
C 48.103125 69.201444 36.975764                                                 
C 49.559105 67.032464 30.293877                                                 
C 49.516250 66.910786 37.113857                                                 
H 50.602490 68.818678 30.331527                                                 
C 52.182378 66.869467 37.308208                                                 
H 49.129287 70.996077 37.056370                                                 
C 45.385849 69.161368 42.644238                                                 
C 45.442797 69.063734 50.073483                                                 
H 46.439918 70.931115 42.481698                                                 
C 48.047764 69.075159 50.010389                                                 
C 49.446582 66.806007 42.693717                                                 
C 49.463665 66.785674 49.984317                                                 
H 50.485919 68.584529 42.512734                                                 
C 52.142519 66.754324 50.025107                                                 
H 49.080477 70.867076 49.974110                                                 
H 57.289169 66.275948 37.286062                                                 
H 57.219771 66.237435 49.505286                                                 
H 53.210759 68.655757 37.474190                                                 
H 53.170319 68.544225 50.151757                                                 
C 57.602727 62.358791 30.580362                                                 
C 57.561106 62.223409 37.029312                                                 
H 58.640913 64.148046 30.594565                                                 
C 60.267962 62.142695 36.969621                                                 
C 57.506534 62.120448 42.987626                                                 
C 57.519986 62.184996 49.146982                                                 
H 58.536816 63.914068 42.972455                                                 
C 60.218701 62.099665 49.034969                                                 
C 53.585083 64.672459 30.105436                                                 
C 53.569386 64.572636 37.252458                                                 
C 56.237114 64.494729 37.192332                                                 
C 53.474643 64.451106 42.797176                                                 
C 53.531646 64.482709 49.702660                                                 
C 56.177442 64.451382 49.464735                                                 
C 61.671369 60.006289 30.858736                                                 
C 61.544292 59.901168 36.890442                                                 
H 62.695262 61.800629 30.904029                                                 
H 63.610783 59.873773 36.882138                                                 
H 65.054844 57.739376 30.862803                                                 
H 61.292538 63.940224 37.016252                                                 
C 61.563325 59.789900 42.943479                                                 
C 61.521364 59.808884 49.055959                                                 
H 62.570207 61.590104 43.091177                                                 
H 63.586610 59.793325 48.996355                                                 
H 64.950095 57.568725 42.739205                                                 
H 61.256374 63.887773 48.994699                                                 
H 63.576748 50.460003 49.913181                                                 
H 36.330960 34.659285 50.281281                                                 
H 36.306523 66.168618 50.261970                                                 
H 27.190192 50.528238 42.844688                                                 
H 54.515050 66.232346 42.645187                                                 
H 63.580717 50.551626 36.666151                                                 
H 54.484123 34.778582 42.446673                                                 
H 36.335639 34.787938 37.074039                                                 
H 36.353931 66.314675 36.548216                                                 
H 54.625831 66.458847 30.010406                                                 
H 27.283937 50.766932 29.597505                                                 
H 54.625065 34.954496 30.673316                                                 
Li 31.935129 41.467199 26.482900                                                
Li 30.370903 47.998519 33.450149                                                
Li 58.904917 59.839004 52.414997                                                
Li 35.972859 38.607940 33.194876                                                
Li 60.323320 57.731681 27.494114                                                
Li 42.756135 36.272738 33.556516                                                
Li 30.444630 57.400333 52.858049                                                
Li 35.862048 62.391618 46.354774                                                
Li 46.955604 33.963450 52.744724                                                
Li 30.246546 47.903794 46.539531                                                
Li 52.441649 39.037191 27.326400                                                
Li 35.535582 38.866092 46.373476                                                
Li 44.264043 67.200756 27.234768                                                
Li 35.619321 62.585893 33.187301                                                
Li 30.376673 53.331286 33.491271                                                
Li 40.213477 36.142662 46.342411                                                
Li 55.150379 38.534791 46.259787                                                
Li 60.446528 48.010296 45.980993                                                
Li 44.059198 66.995852 46.248790                                                
Li 51.222512 65.463162 46.338764                                                
Li 51.272782 64.889949 33.802115                                                
Li 39.167351 66.232641 39.569797                                                
Li 61.747526 53.229401 46.102772                                                
Li 51.991680 35.494320 39.743640                                                
%ENDBLOCK POSITIONS_ABS                                                         

--------------------------------------------------------------------------------
-------------------------------- END INPUT FILE --------------------------------
--------------------------------------------------------------------------------


 
<<<<<<<<<<<<<<<<<<<<<<<<<<<<<<<<< Full system >>>>>>>>>>>>>>>>>>>>>>>>>>>>>>>>>>
<<<<<<<<<<<<<<<<<<<<<<<<<<< PAW Dataset information >>>>>>>>>>>>>>>>>>>>>>>>>>>
File: ~/pp/paw/c_pbe_abinit.paw; rc = 1.25 bohr; shape type =  3; rshape = 1.25 bohr;
  Atomic number:  6;  ionic charge:  4.000000
    Partial Wave 1: l = 0
    Partial Wave 2: l = 0
    Partial Wave 3: l = 1
    Partial Wave 4: l = 1
  Core charge supplied for Nonlinear Core Corrections
File: ~/pp/paw/h_pbe_abinit.paw; rc = 0.90 bohr; shape type =  3; rshape = 0.90 bohr;
  Atomic number:  1;  ionic charge:  1.000000
    Partial Wave 1: l = 0
    Partial Wave 2: l = 0
File: ~/pp/paw/li_pbe_abinit.paw; rc = 1.42 bohr; shape type =  3; rshape = 1.42 bohr;
  Atomic number:  3;  ionic charge:  3.000000
    Partial Wave 1: l = 0
    Partial Wave 2: l = 0
    Partial Wave 3: l = 0
    Partial Wave 4: l = 1
    Partial Wave 5: l = 1
<<<<<<<<<<<<<<<<<<<<<<<<<<<<<<<<<<<<<<< >>>>>>>>>>>>>>>>>>>>>>>>>>>>>>>>>>>>>>>

-------------------------- Atom counting information ---------------------------
Symbol    Natoms    Nngwfs    Nprojs
  C        484      1936      3872
  H        108       108       216
  Li        24       120       216
.......   ......    ......    ......
Totals:    616      2164      4304
--------------------------------------------------------------------------------

=============================== PSINC grid sizes ===============================
                      Simulation cell:  189 x 189 x 189
                              FFT-box:  117 x 117 x 117
                                  PPD:    7 x   7 x   1
Grid space d1=  0.499927596032a0 (KE cutoff=  30.39413Eh = 827.06648eV)
Grid space d2=  0.499927596032a0 (KE cutoff=  30.39413Eh = 827.06648eV)
Grid space d3=  0.499927596032a0 (KE cutoff=  30.39413Eh = 827.06648eV)
================================================================================
  
WARNING in cell_grid_distribute:
Average of less than one 23-slab per node, so workload cannot be
equally balanced between nodes.

********************* Fourier parallelisation information **********************
       Coarse grid (whole simulation cell) dimensions:    189   189   189
          Real-space ('12') slabs/node (min max mean):      1     2     1
         Recip-space ('23') slabs/node (min max mean):      0     1     0
********************************************************************************

********************* Fourier parallelisation information **********************
       Double grid (whole simulation cell) dimensions:    378   378   378
          Real-space ('12') slabs/node (min max mean):      2     3     2
         Recip-space ('23') slabs/node (min max mean):      1     2     1
********************************************************************************

Atom SCF Calculation for C  : Z (AE atom) =   6 : Z (PS atom) =   4
Config String: 2s2 2p2
Orbitals (num,occ):  2     2.00 2.00
Orbitals   (num,l):  2        0    1
Real-space Grid (nr,dr,rmax): 1377    0.0065406977    9.0000000000
Spherical Bessel Basis (nsws,lmax,cutoff):   37    2  183.0099912382
Confining potential (l,width,scale):  0    3.0000000000  100.0000000000
Confining potential (l,width,scale):  1    3.0000000000  100.0000000000
  1         -5.4350126632   -1.2715272878    4.5135247139   -1.5681949477
  2         -5.3876836850   -1.3562195125    4.4235426751   -1.5380057521
  3         -5.3928844498   -1.3758175853    4.4021699684   -1.5318377811
  4         -5.3988962903   -1.3800385428    4.3975423583   -1.5307324410
  5         -5.4018428823   -1.3823489590    4.3950111904   -1.5301555648
  6         -5.4033571720   -1.3835805046    4.3936635548   -1.5298576834
  7         -5.4041480647   -1.3842324820    4.3929512000   -1.5297032953
  8         -5.4045641108   -1.3845769138    4.3925755232   -1.5296229456
  9         -5.4047838258   -1.3847587737    4.3923775340   -1.5295810042
 10         -5.4049001347   -1.3848548089    4.3922731819   -1.5295590658
 11         -5.4049618018   -1.3849055476    4.3922181562   -1.5295475724
 12         -5.4049945351   -1.3849323732    4.3921891206   -1.5295415432
 13         -5.4050119258   -1.3849465673    4.3921737867   -1.5295383767
 14         -5.4050211723   -1.3849540841    4.3921656816   -1.5295367119
 15         -5.4050260920   -1.3849580684    4.3921613935   -1.5295358358
 16         -5.4050287113   -1.3849601822    4.3921591228   -1.5295353742
 17         -5.4050301068   -1.3849613045    4.3921579192   -1.5295351307
 18         -5.4050308507   -1.3849619010    4.3921572806   -1.5295350022
 19         -5.4050312476   -1.3849622183    4.3921569415   -1.5295349343
 20         -5.4050314594   -1.3849623873    4.3921567612   -1.5295348984
 21         -5.4050315725   -1.3849624773    4.3921566653   -1.5295348794
 22         -5.4050316330   -1.3849625253    4.3921566143   -1.5295348693
Atom SCF converged after  22 iterations to a total energy of     -5.40503163

Atom SCF Calculation for H  : Z (AE atom) =   1 : Z (PS atom) =   1
Config String: 1s1
Orbitals (num,occ):  1     1.00
Orbitals   (num,l):  1        0
Real-space Grid (nr,dr,rmax): 1377    0.0065406977    9.0000000000
Spherical Bessel Basis (nsws,lmax,cutoff):   37    1  183.0099912382
Confining potential (l,width,scale):  0    3.0000000000  100.0000000000
  1         -0.3605254152   -0.2399954029    0.2820952946   -0.2424203210
  2         -0.4156854077   -0.2398249290    0.2871789324   -0.2464796203
  3         -0.4412552402   -0.2379720642    0.2899127187   -0.2499011370
  4         -0.4517265951   -0.2371980236    0.2908966173   -0.2514141636
  5         -0.4557775773   -0.2369735141    0.2911607883   -0.2519713623
  6         -0.4573363459   -0.2369240355    0.2912108681   -0.2521663171
  7         -0.4579443228   -0.2369187864    0.2912112833   -0.2522344454
  8         -0.4581858602   -0.2369215483    0.2912049187   -0.2522587615
  9         -0.4582834939   -0.2369242589    0.2912002081   -0.2522677042
 10         -0.4583235236   -0.2369258837    0.2911975892   -0.2522710965
 11         -0.4583401154   -0.2369267223    0.2911962825   -0.2522724192
 12         -0.4583470483   -0.2369271266    0.2911956643   -0.2522729467
 13         -0.4583499624   -0.2369273145    0.2911953803   -0.2522731607
 14         -0.4583511926   -0.2369274000    0.2911952521   -0.2522732486
 15         -0.4583517136   -0.2369274385    0.2911951948   -0.2522732850
 16         -0.4583519349   -0.2369274556    0.2911951693   -0.2522733002
 17         -0.4583520290   -0.2369274632    0.2911951581   -0.2522733066
Atom SCF converged after  17 iterations to a total energy of     -0.45835203

Atom SCF Calculation for Li : Z (AE atom) =   3 : Z (PS atom) =   3
Config String: 1s2 2s1 2p0
Orbitals (num,occ):  3     2.00 1.00 0.00
Orbitals   (num,l):  3        0    0    1
Real-space Grid (nr,dr,rmax): 1377    0.0065406977    9.0000000000
Spherical Bessel Basis (nsws,lmax,cutoff):   37    2  183.0099912382
Confining potential (l,width,scale):  0    3.0000000000  100.0000000000
Confining potential (l,width,scale):  1    3.0000000000  100.0000000000
  1         -6.0640888065   -4.6655401716    2.5388576516   -0.9989538799
  2         -6.9627542978   -4.0954079129    2.9808988108   -1.1965571426
  3         -7.2692687601   -3.8889996707    3.2029735703   -1.3193883705
  4         -7.3784440298   -3.8322099748    3.2868571989   -1.3711018151
  5         -7.4170278248   -3.8191968371    3.3144974220   -1.3911175539
  6         -7.4303549880   -3.8172386945    3.3228486489   -1.3986896266
  7         -7.4348052089   -3.8175483495    3.3251259310   -1.4015352495
  8         -7.4362242328   -3.8180607346    3.3256233205   -1.4026016384
  9         -7.4366459715   -3.8184145665    3.3256561549   -1.4029998726
 10         -7.4367560626   -3.8186169740    3.3256001574   -1.4031477379
 11         -7.4367765260   -3.8187239825    3.3255481763   -1.4032021548
 12         -7.4367751741   -3.8187782620    3.3255144587   -1.4032219192
 13         -7.4367707398   -3.8188051288    3.3254952336   -1.4032289600
 14         -7.4367680349   -3.8188156035    3.3254870176   -1.4032309087
 15         -7.4367661982   -3.8188217406    3.3254819951   -1.4032318132
 16         -7.4367650112   -3.8188253257    3.3254789583   -1.4032322224
 17         -7.4367642682   -3.8188274151    3.3254771375   -1.4032324006
 18         -7.4367638134   -3.8188286307    3.3254760529   -1.4032324736
 19         -7.4367635392   -3.8188293370    3.3254754103   -1.4032325004
 20         -7.4367633760   -3.8188297469    3.3254750310   -1.4032325080
 21         -7.4367632796   -3.8188299846    3.3254748079   -1.4032325082
Atom SCF converged after  21 iterations to a total energy of     -7.43676328

Determining parallel strategy ...
... using space-filling curve
... NGWF load balancing: max     17;  min     13;  average     14
... Projector load balancing: max     34;  min     26;  average     29
... done
Calculating Ewald energy ...
              Ewald: real-space energy =   36350.619513
        Ewald: reciprocal-space energy =   35353.209716
         Ewald: (sum_charge)**2 Energy =    2784.660016
         Ewald: (sum_charge**2) Energy =     249.073253
                          Ewald Energy =   68670.095959
======================= Empirical dispersion information =======================
Model : Grimme D2
Dispersion Correction Energy: -0.21160699E+01 Hartree
================================================================================
Basis initialisation ...... NGWF spheres initialised
... Projector spheres initialised
... NGWF tight boxes initialised
... Projector tight boxes initialised
... Tight-boxes gathered
... NGWF basis size (local,global):     276326  41767116
... PAW projector initialisation
... done

============================= Charge Augmentation ==============================
                           Aug box size:   13 x  13 x  13
================================================================================

========================== Sparse matrix information ===========================
                        Overlap matrix filling:  38.14%
                        Density kernel filling: 100.00%
              NGWF-Proj overlap matrix filling:  10.76%
                    Aug Overlap matrix filling:  42.27%
                    Hamiltonian matrix filling:  42.27%
                  NGWF diagonal matrix filling:   0.18%
                             KS matrix filling: 100.00% 
                           KSKS matrix filling: 100.00% 
================================================================================

Sparse matrix initialisation ... done
NGWF initialisation ...... done
============ Calculation of NGWF S^-1 using Hotelling algorithm ================ 
         Iteration  |  Frobenius norm and Maximum abs value    (of I-S*S_n^-1)   
               1       0.46185028E+02     0.99627631E+00
               2       0.45869180E+02     0.99257562E+00
               3       0.45285842E+02     0.98524112E+00
               4       0.44280618E+02     0.97082619E+00
               5       0.42729982E+02     0.94292270E+00
               6       0.40642552E+02     0.89029972E+00
               7       0.38097971E+02     0.79536206E+00
               8       0.35146347E+02     0.77237727E+00
               9       0.32019609E+02     0.75301421E+00
              10       0.29007914E+02     0.73532397E+00
              11       0.25846017E+02     0.72128219E+00
              12       0.21870498E+02     0.70455109E+00
              13       0.16650775E+02     0.67565911E+00
              14       0.10501356E+02     0.62667856E+00
              15       0.50003327E+01     0.54538878E+00
              16       0.19222880E+01     0.41782936E+00
              17       0.90577299E+00     0.24734854E+00
              18       0.38267783E+00     0.87093361E-01
              19       0.78085479E-01     0.15761604E-01
              20       0.36001769E-02     0.85467230E-03
              21       0.91552645E-05     0.25130336E-05
              22       0.75022307E-10     0.21726621E-10
              23       0.43951058E-13     0.26645353E-14
================================================================================
Calculating core density ...
================================= Core Density =================================
               Core den box size:   21 x  21 x  21
================================================================================
 ... done
Up spin density kernel initialisation ...... done

Writing density kernel to file "24/592nano.dkn" ... done

>>> Optimising kernel for current NGWFs:

--------------------------- Ensemble-DFT optimisation --------------------------
Running ScaLAPACK on  150 processor(s).

--------------------------------------------------------------------------------
  Iter                              Commutator    Free_energy(A=E-TS)     DeltaA
#    0                          0.001123462729   -2996.92121096935671  -3.00E+03

Step                       =       0.381966011250
Energy                     =   -2996.897447532570
Entropy (-TS)              =      -0.023763436540
Free energy (A=E-TS)       =   -2996.921210969357
Est. 0K Energy 0.5*(E+A)   =   -2996.909329250963
Residual Non-orthogonality =       0.000000000000
Residual N_electrons       =      -0.000000000247

Spin          Integrated_Ne            Fermi_level     Delta_Fermi_level
   1      2115.999999998991        -0.244790883224             -2.45E-01

                           Spin 1          
     Orb      H-eigenvalues     Occupancies
       1 |    -1.9161288654    1.0000000000 | 
                          ------
    1054 |    -0.2545904009    0.9566629436 | 
    1055 |    -0.2533612991    0.9373987442 | 
    1056 |    -0.2515828220    0.8951747932 | 
    1057 |    -0.2495642334    0.8186614398 | 
    1058 |    -0.2470787575    0.6731470870 | 
                 - Gap at zero temperature -
    1059 |    -0.2452920704    0.5394832243 | 
    1060 |    -0.2406198735    0.2113010542 | 
    1061 |    -0.2329891860    0.0235067231 | 
    1062 |    -0.2308087088    0.0119474071 | 
    1063 |    -0.2280584017    0.0050480119 | 
                          ------
    2164 |     0.5630434632    0.0000000000 | 

                       |  Abs_value |  Threshold | Converged
     Delta_Free_energy |   3.00E+03 |   1.00E-06 |        No
     Delta_Energy      |   3.00E+03 |   1.00E-04 |        No
     Delta_Entropy     |   2.38E-02 |   1.00E-04 |        No
     Commutator        |   1.12E-03 |   1.00E-05 |        No
     Delta_Fermi_level |   2.45E-01 |   1.00E-03 |        No

  Line search of the free energy minimum:
  Step_type        Step             Free_energy   Predicted_free_energy
.   Initial    0.000000    -2996.92121096935671
.    Trial1    0.381966    -2996.19209830329737
.    Trial2    0.145898    -2997.54104572179631
. Quadratic    0.154391    -2997.54231106759471    -2997.54292692441140

--------------------------------------------------------------------------------
  Iter                              Commutator    Free_energy(A=E-TS)     DeltaA
#    1                          0.000767570947   -2997.54231106759471  -6.21E-01

Step                       =       0.154390676401
Energy                     =   -2997.517841532614
Entropy (-TS)              =      -0.024469535336
Free energy (A=E-TS)       =   -2997.542311067595
Est. 0K Energy 0.5*(E+A)   =   -2997.530076300104
Residual Non-orthogonality =       0.000000000000
Residual N_electrons       =       0.000000000355

Spin          Integrated_Ne            Fermi_level     Delta_Fermi_level
   1      2116.000000001584        -0.223835059437              2.10E-02

                           Spin 1          
     Orb      H-eigenvalues     Occupancies
       1 |    -1.8991438291    1.0000000000 | 
                          ------
    1054 |    -0.2362116889    0.9803191217 | 
    1055 |    -0.2339662581    0.9608033943 | 
    1056 |    -0.2333120320    0.9522383058 | 
    1057 |    -0.2278570902    0.7807524919 | 
    1058 |    -0.2258520583    0.6540564166 | 
                 - Gap at zero temperature -
    1059 |    -0.2220563640    0.3631616957 | 
    1060 |    -0.2170340867    0.1045578211 | 
    1061 |    -0.2148798589    0.0558387553 | 
    1062 |    -0.2145753175    0.0509800533 | 
    1063 |    -0.2143215081    0.0472391001 | 
                          ------
    2164 |     0.5888635552    0.0000000000 | 

                       |  Abs_value |  Threshold | Converged
     Delta_Free_energy |   6.21E-01 |   1.00E-06 |        No
     Delta_Energy      |   6.20E-01 |   1.00E-04 |        No
     Delta_Entropy     |   7.06E-04 |   1.00E-04 |        No
     Commutator        |   7.68E-04 |   1.00E-05 |        No
     Delta_Fermi_level |   2.10E-02 |   1.00E-03 |        No

  Line search of the free energy minimum:
  Step_type        Step             Free_energy   Predicted_free_energy
.   Initial    0.000000    -2997.54231106759471
.    Trial1    0.154391    -2997.49807087058798
.    Trial2    0.058972    -2997.78127616523807
. Quadratic    0.074044    -2997.79829394858643    -2997.79160604736080

--------------------------------------------------------------------------------
  Iter                              Commutator    Free_energy(A=E-TS)     DeltaA
#    2                          0.000596739557   -2997.79829394858643  -2.56E-01

Step                       =       0.074044420025
Energy                     =   -2997.771803666462
Entropy (-TS)              =      -0.026490282359
Free energy (A=E-TS)       =   -2997.798293948586
Est. 0K Energy 0.5*(E+A)   =   -2997.785048807524
Residual Non-orthogonality =       0.000000000000
Residual N_electrons       =       0.000000000235

Spin          Integrated_Ne            Fermi_level     Delta_Fermi_level
   1      2116.000000001084        -0.216631137326              7.20E-03

                           Spin 1          
     Orb      H-eigenvalues     Occupancies
       1 |    -1.9023751359    1.0000000000 | 
                          ------
[...]
 C      323         4.0018201      -0.0018201
 C      324         4.3299651      -0.3299651
 H      325         0.7874504       0.2125496
 H      326         0.8118024       0.1881976
 C      327         4.0007128      -0.0007128
 C      328         4.0879604      -0.0879604
 C      329         4.0039724      -0.0039724
 C      330         4.0787418      -0.0787418
 C      331         4.3027104      -0.3027104
 C      332         4.0819308      -0.0819308
 C      333         4.0920772      -0.0920772
 C      334         4.3199066      -0.3199066
 H      335         0.7959062       0.2040938
 H      336         0.8098383       0.1901617
 C      337         4.2697829      -0.2697829
 C      338         3.9770735       0.0229265
 C      339         4.0041573      -0.0041573
 C      340         4.2302013      -0.2302013
 C      341         4.3304762      -0.3304762
 C      342         4.0496951      -0.0496951
 C      343         4.0033737      -0.0033737
 C      344         4.2312339      -0.2312339
 C      345         4.0024684      -0.0024684
 C      346         3.9932110       0.0067890
 C      347         4.0128257      -0.0128257
 C      348         4.0099370      -0.0099370
 C      349         4.0100326      -0.0100326
 C      350         3.9924711       0.0075289
 C      351         4.0125619      -0.0125619
 C      352         4.0128403      -0.0128403
 C      353         3.9952794       0.0047206
 C      354         4.0083938      -0.0083938
 C      355         4.0129912      -0.0129912
 C      356         4.0013134      -0.0013134
 C      357         3.9981732       0.0018268
 C      358         3.9952701       0.0047299
 C      359         4.0070065      -0.0070065
 C      360         4.0033882      -0.0033882
 C      361         4.0978709      -0.0978709
 C      362         3.9879665       0.0120335
 C      363         4.0000667      -0.0000667
 C      364         4.0136517      -0.0136517
 C      365         4.0400062      -0.0400062
 C      366         4.0543663      -0.0543663
 C      367         4.0020790      -0.0020790
 C      368         4.0798098      -0.0798098
 H      369         0.8143259       0.1856741
 H      370         0.8070350       0.1929650
 H      371         0.8000399       0.1999601
 H      372         0.8058179       0.1941821
 C      373         4.0157093      -0.0157093
 C      374         3.9930162       0.0069838
 C      375         4.0053724      -0.0053724
 C      376         4.0213290      -0.0213290
 C      377         4.0921487      -0.0921487
 C      378         4.0002843      -0.0002843
 C      379         4.0852713      -0.0852713
 C      380         4.0319881      -0.0319881
 C      381         3.9990764       0.0009236
 C      382         4.0048649      -0.0048649
 C      383         4.0094882      -0.0094882
 C      384         4.0116005      -0.0116005
 C      385         3.9996146       0.0003854
 C      386         4.0128779      -0.0128779
 C      387         4.0165185      -0.0165185
 C      388         4.0503719      -0.0503719
 C      389         4.4290617      -0.4290617
 C      390         4.0686940      -0.0686940
 C      391         4.0697825      -0.0697825
 C      392         4.2572365      -0.2572365
 C      393         4.5214125      -0.5214125
 C      394         4.0403221      -0.0403221
 C      395         4.0628722      -0.0628722
 C      396         4.3564041      -0.3564041
 H      397         0.8037599       0.1962401
 H      398         0.7981457       0.2018543
 H      399         0.7952652       0.2047348
 H      400         0.7955592       0.2044408
 H      401         0.7963065       0.2036935
 H      402         0.7849033       0.2150967
 C      403         4.2251508      -0.2251508
 C      404         4.1994619      -0.1994619
 C      405         4.2381767      -0.2381767
 C      406         4.0014225      -0.0014225
 C      407         4.0084114      -0.0084114
 C      408         4.0059855      -0.0059855
 C      409         4.0822906      -0.0822906
 C      410         4.0042650      -0.0042650
 H      411         0.7959751       0.2040249
 H      412         0.8078152       0.1921848
 C      413         4.0590755      -0.0590755
 C      414         4.3191883      -0.3191883
 C      415         4.3749583      -0.3749583
 C      416         4.0675749      -0.0675749
 C      417         4.2031323      -0.2031323
 C      418         4.3138996      -0.3138996
 C      419         4.2381446      -0.2381446
 C      420         4.0947051      -0.0947051
 C      421         4.0098987      -0.0098987
 C      422         4.0870725      -0.0870725
 C      423         4.0737118      -0.0737118
 C      424         4.0086361      -0.0086361
 H      425         0.8022309       0.1977691
 H      426         0.8042687       0.1957313
 C      427         4.0433102      -0.0433102
 C      428         4.3806040      -0.3806040
 C      429         4.3646381      -0.3646381
 C      430         4.0784823      -0.0784823
 C      431         3.9944627       0.0055373
 C      432         3.9968880       0.0031120
 C      433         4.0134541      -0.0134541
 C      434         4.0098628      -0.0098628
 C      435         3.9931814       0.0068186
 C      436         3.9952773       0.0047227
 C      437         4.0097397      -0.0097397
 C      438         4.0063777      -0.0063777
 C      439         4.0585571      -0.0585571
 C      440         4.0296136      -0.0296136
 C      441         4.0532435      -0.0532435
 C      442         4.0200910      -0.0200910
 C      443         4.0397169      -0.0397169
 C      444         4.0575726      -0.0575726
 C      445         4.0714703      -0.0714703
 C      446         4.0129049      -0.0129049
 C      447         4.0028224      -0.0028224
 C      448         3.9923333       0.0076667
 C      449         4.0106504      -0.0106504
 C      450         4.0136609      -0.0136609
 C      451         3.9951388       0.0048612
 C      452         4.0077821      -0.0077821
 C      453         4.0104558      -0.0104558
 C      454         4.0043445      -0.0043445
 C      455         4.0122943      -0.0122943
 C      456         3.9926637       0.0073363
 C      457         4.0051534      -0.0051534
 C      458         4.0098455      -0.0098455
 C      459         4.0011937      -0.0011937
 C      460         4.0050212      -0.0050212
 C      461         4.0049808      -0.0049808
 C      462         4.0020197      -0.0020197
 C      463         4.0823194      -0.0823194
 C      464         4.3756179      -0.3756179
 C      465         4.3291342      -0.3291342
 C      466         4.0001242      -0.0001242
 C      467         4.1333121      -0.1333121
 C      468         4.3270902      -0.3270902
 C      469         4.3160058      -0.3160058
 C      470         4.0990239      -0.0990239
 H      471         0.8118777       0.1881223
 H      472         0.8259962       0.1740038
 H      473         0.8060822       0.1939178
 H      474         0.8051211       0.1948789
 C      475         4.0137022      -0.0137022
 C      476         4.0007959      -0.0007959
 C      477         4.0866792      -0.0866792
 C      478         4.0065896      -0.0065896
 C      479         4.0085890      -0.0085890
 C      480         4.0142678      -0.0142678
 C      481         4.0852773      -0.0852773
 C      482         4.0052992      -0.0052992
 H      483         0.8008530       0.1991470
 H      484         0.8035511       0.1964489
 C      485         4.0348053      -0.0348053
 C      486         4.5311091      -0.5311091
 C      487         4.3196244      -0.3196244
 C      488         4.0539459      -0.0539459
 C      489         4.0984702      -0.0984702
 C      490         4.3752844      -0.3752844
 C      491         4.4542463      -0.4542463
 C      492         3.9865647       0.0134353
 C      493         4.2206474      -0.2206474
 C      494         4.1880821      -0.1880821
 C      495         4.2285783      -0.2285783
 H      496         0.7978794       0.2021206
 C      497         3.9977654       0.0022346
 C      498         4.1899318      -0.1899318
 C      499         4.2744595      -0.2744595
 H      500         0.8091986       0.1908014
 H      501         0.7992739       0.2007261
 C      502         4.2047387      -0.2047387
 C      503         4.2139443      -0.2139443
 C      504         4.2396101      -0.2396101
 H      505         0.7940559       0.2059441
 C      506         4.0449156      -0.0449156
 C      507         4.3232388      -0.3232388
 C      508         4.3781831      -0.3781831
 H      509         0.8036926       0.1963074
 H      510         0.7985997       0.2014003
 C      511         4.0807205      -0.0807205
 C      512         4.1892707      -0.1892707
 C      513         4.3180595      -0.3180595
 H      514         0.8118277       0.1881723
 H      515         0.8100214       0.1899786
 C      516         4.0564724      -0.0564724
 C      517         4.4337662      -0.4337662
 C      518         4.2547406      -0.2547406
 H      519         0.8145016       0.1854984
 H      520         0.8031088       0.1968912
 C      521         3.9946029       0.0053971
 C      522         4.1902932      -0.1902932
 C      523         4.2909537      -0.2909537
 H      524         0.8115928       0.1884072
 C      525         4.0508884      -0.0508884
 C      526         4.4568195      -0.4568195
 C      527         4.4192167      -0.4192167
 H      528         0.8012723       0.1987277
 H      529         0.7890840       0.2109160
 H      530         0.8031871       0.1968129
 H      531         0.7908897       0.2091103
 H      532         0.7905063       0.2094937
 C      533         4.3130043      -0.3130043
 C      534         4.2087789      -0.2087789
 H      535         0.7864487       0.2135513
 C      536         4.2358837      -0.2358837
 C      537         4.3827531      -0.3827531
 C      538         4.0409073      -0.0409073
 H      539         0.8059231       0.1940769
 C      540         4.3504085      -0.3504085
 H      541         0.8023232       0.1976768
 C      542         4.2766650      -0.2766650
 C      543         4.2817435      -0.2817435
 H      544         0.7876474       0.2123526
 C      545         4.2300539      -0.2300539
 C      546         4.3913161      -0.3913161
 C      547         4.0588912      -0.0588912
 H      548         0.8094587       0.1905413
 C      549         4.3907967      -0.3907967
 H      550         0.7931152       0.2068848
 H      551         0.8133219       0.1866781
 H      552         0.8104695       0.1895305
 H      553         0.8029677       0.1970323
 H      554         0.8002724       0.1997276
 C      555         4.2729228      -0.2729228
 C      556         3.9765632       0.0234368
 H      557         0.8086088       0.1913912
 C      558         4.2289994      -0.2289994
 C      559         4.2367808      -0.2367808
 C      560         4.0747695      -0.0747695
 H      561         0.8125973       0.1874027
 C      562         4.3222377      -0.3222377
 C      563         4.3885087      -0.3885087
 C      564         4.0416075      -0.0416075
 C      565         4.2549049      -0.2549049
 C      566         4.3734400      -0.3734400
 C      567         4.0478710      -0.0478710
 C      568         4.3163075      -0.3163075
 C      569         4.2909507      -0.2909507
 C      570         4.1945099      -0.1945099
 H      571         0.7846741       0.2153259
 H      572         0.8017841       0.1982159
 H      573         0.7865478       0.2134522
 H      574         0.8040432       0.1959568
 C      575         4.1963004      -0.1963004
 C      576         4.3069816      -0.3069816
 H      577         0.7997527       0.2002473
 H      578         0.7875023       0.2124977
 H      579         0.8035470       0.1964530
 H      580         0.7878016       0.2121984
 H      581         0.8073095       0.1926905
 H      582         0.8035032       0.1964968
 H      583         0.8070777       0.1929223
 H      584         0.8077040       0.1922960
 H      585         0.8119977       0.1880023
 H      586         0.8104461       0.1895539
 H      587         0.8069800       0.1930200
 H      588         0.8040395       0.1959605
 H      589         0.8190983       0.1809017
 H      590         0.8077234       0.1922766
 H      591         0.8032260       0.1967740
 H      592         0.7976428       0.2023572
 Li     593         2.0460695       0.9539305
 Li     594         2.1504558       0.8495442
 Li     595         2.0452918       0.9547082
 Li     596         2.1286988       0.8713012
 Li     597         2.0467986       0.9532014
 Li     598         2.1219944       0.8780056
 Li     599         2.0462049       0.9537951
 Li     600         2.1308899       0.8691101
 Li     601         2.0454890       0.9545110
 Li     602         2.1259191       0.8740809
 Li     603         2.0452479       0.9547521
 Li     604         2.1404253       0.8595747
 Li     605         2.0466796       0.9533204
 Li     606         2.1322341       0.8677659
 Li     607         2.1458875       0.8541125
 Li     608         2.1512198       0.8487802
 Li     609         2.1244280       0.8755720
 Li     610         2.1573243       0.8426757
 Li     611         2.1233777       0.8766223
 Li     612         2.1363840       0.8636160
 Li     613         2.1376829       0.8623171
 Li     614         2.1292739       0.8707261
 Li     615         2.1466522       0.8533478
 Li     616         2.1590175       0.8409825
------------------------------------------------
 Total charge (e):   2116.0000000
================================================
Writing "24/592nano_nao_nbo.47" ... 2: sizes -->         2164        2164
        2164        2164
 done
================================================

------------------------------ TIMING INFORMATION ------------------------------
AVERAGE TIME:    9087.683s on    150 node(s)                                    
TOTAL TIME:      9087.684s on    150 node(s)                                    
================= AVERAGE TIMINGS FROM ALL NODES (CUMULATIVE) ==================
|| TAG                                    #calls    cpu time   %total  Gflops ||
|| linalg_dsyev_lt                      :     3        0.00s   0.000%  ------ ||
|| work_imbalance                       :     1        0.00s   0.000%  ------ ||
|| sparse_set_to_garbage                :   135        0.00s   0.000%  ------ ||
|| paw_sphere_density_on_grid           :     1        0.01s   0.000%  ------ ||
|| paw_tcore_density                    :     1        0.01s   0.000%  ------ ||
|| basis_extract_function_from_box      :   346        0.02s   0.000%  ------ ||
|| paw_dij_hartree                      :   899        0.03s   0.000%  ------ ||
|| ngwfs_initialise_from_radial         :     2        0.04s   0.000%  ------ ||
|| density_init_guess_real              :     1        0.15s   0.002%  ------ ||
|| ewald_calculate_energy               :     1        0.15s   0.002%  ------ ||
|| paw_dataset_init                     :     3        0.34s   0.004%  ------ ||
|| paw_tcore_hartree_on_grid            :     1        0.38s   0.004%  ------ ||
|| pseudo_make_structure_factor         :     1        0.48s   0.005%  ------ ||
|| kernel_purify                        :    10        0.89s   0.010%  ------ ||
|| restart_kernel_write                 :    13        0.93s   0.010%  ------ ||
|| sparse_init                          :     1        0.99s   0.011%  ------ ||
|| paw_species_calc_proj_prec_mat       :     1        1.89s   0.021%  ------ ||
|| dense_normal_eigensolve              :     5        3.21s   0.035%  ------ ||
|| sparse_embed_hotelling_invert_embed  :    23        5.69s   0.063%  ------ ||
|| fourier_apply_box_pair               :   518        5.92s   0.065%  2.166k ||
|| ngwf_gradient_coeffs                 :    12        6.69s   0.074%  ------ ||
|| sw_init                              :     1        7.52s   0.083%  ------ ||
|| basis_copy_function_to_box           : 13445       13.49s   0.148%  ------ ||
|| augmentation_screen_dij              :   676       13.85s   0.152%  ------ ||
|| paw_dij_xc                           :   899       20.03s   0.220%  ------ ||
|| projectors_init_fftbox_recip         :    73       22.81s   0.251%  ------ ||
|| hartree_on_grid                      :   671       28.90s   0.318%  ------ ||
|| integrals_kinetic                    :    23       31.42s   0.346%  ------ ||
|| projectors_func_ovlp_box             :    24       34.08s   0.375%  ------ ||
|| function_ops_brappd_ketppd           :    48       34.78s   0.383%  ------ ||
|| eigenstates_pdos                     :     1       43.23s   0.476%  ------ ||
|| augmentation_density_on_grid         :   671       47.76s   0.526%  ------ ||
|| hamiltonian_energy_components        :     3       48.96s   0.539%  ------ ||
|| aug_nonlocal_mat                     :   887       51.23s   0.564%  ------ ||
|| sparse_trace                         :  8418       62.17s   0.684%  ------ ||
|| fourier_apply_cell_forward           :  3351       66.03s   0.727% 176.636 ||
|| fourier_apply_cell_backward          :  3352       66.81s   0.735% 174.627 ||
|| basis_dot_function_with_box          : 2.977M      80.86s   0.890%  ------ ||
|| eigenstates_calculate                :     1       84.83s   0.933%  ------ ||
|| restart_ngwfs_tightbox_output        :    11       99.27s   1.092%  ------ ||
|| xc_energy_potential                  :   670      118.87s   1.308%  ------ ||
|| sparse_product                       :  7420      201.65s   2.219%  ------ ||
|| basis_add_function_to_box            : 8.562M     224.30s   2.468%  ------ ||
|| dense_eigensolve                     :   644      229.86s   2.529%  ------ ||
|| projectors_gradient_batch            :    24      272.11s   2.994%  ------ ||
|| cell_grid_extract_box_real           :  7646      308.11s   3.390%  ------ ||
|| integrals_locpot_mat_els_batch       :   450      369.47s   4.066%  ------ ||
|| cell_grid_deposit_box_real           : 24876      393.00s   4.324%  ------ ||
|| projectors_grad_precond_batch        :    24      395.13s   4.348%  ------ ||
|| edft_diag_ngwf_ham                   :   643      670.80s   7.381%  ------ ||
|| density_batch_row_sums               :  1342      728.48s   8.016%  ------ ||
|| ngwf_gradient_build_batch            :    24      738.44s   8.126%  ------ ||
|| density_fftbox_deposit_to_cell       : 11407      747.00s   8.220%  ------ ||
|| npa_main                             :     1      793.28s   8.729%  ------ ||
|| ngwf_gradient_batch                  :    24      800.72s   8.811%  ------ ||
|| potential_apply_to_ngwf_batch        :   450      838.13s   9.223%  ------ ||
|| fourier_apply_box                    : 42319      963.33s  10.600%  3.543k ||
|| ngwf_gradient_lnv                    :    12     1059.51s  11.659%  ------ ||
|| density_fftbox_interpolate_multiply  : 11407     1063.16s  11.699%  ------ ||
|| edft_apply_smearing_operator         :   643     1211.42s  13.330%  ------ ||
|| integrals_locpot_dbl_grid            :   225     1213.50s  13.353%  ------ ||
|| properties_calculate                 :     1     1540.45s  16.951%  ------ ||
|| density_batch_interp_deposit         :  1342     2340.80s  25.758%  ------ ||
|| density_on_dbl_grid                  :   671     3207.09s  35.291%  ------ ||
|| hamiltonian_lhxc_calculate           :   666     3545.98s  39.020%  ------ ||
|| edft_calculate                       :    12     6074.18s  66.840%  ------ ||
|| ngwf_cg_optimise                     :     1     7532.28s  82.884%  ------ ||
|| total_time                           :     1     9087.68s 100.000%  ------ ||
================================================================================
Overhead of generating timer report: 
- 0 ms averaging over threads,
- 23 ms ensuring consistency across MPI ranks,
- 0 ms printing in order.

Job completed: 30-06-2020 23:33 (+0100)

