 +---------------------------------------------------------------+
 |                                                               |
 |        ####### #     # ####### ####### ####### ######         |
 |        #     # ##    # #          #    #       #     #        |
 |        #     # # #   # #          #    #       #     #        |
 |        #     # #  #  # #####      #    #####   ######         |
 |        #     # #   # # #          #    #       #              |
 |        #     # #    ## #          #    #       #              |
 |        ####### #     # #######    #    ####### #              |
 |                                                               |
 |        Linear-Scaling Ab Initio Total Energy Program          |
 |                                                               |
 |          Release for academic collaborators of ODG            |
 |                                             Version 5.3.2.12  |
 |                                                               |
 +---------------------------------------------------------------+
 |                                                               |
 |  Authors:                                                     |
 |  Jacek Dziedzic, Peter D. Haynes, Nicholas D. M. Hine,        |
 |  Arash. A. Mostofi, Mike C. Payne and Chris-Kriton Skylaris   |
 |                                                               |
 |  Contributors:                                                |
 |  J. Aarons, L. Andrinopoulos, P. W. Avraam, R. A. Bell,       |
 |  A. Bhandari, G. A. Bramley, R. J. Charlton, S. J. Clark,     |
 |  R. J. Clements, G. C. Constantinescu, F. Corsetti,           |
 |  N. Corsini, O. Dieguez, S. M. M. Dubois, K. K. B. Duff,      |
 |  J. M. Escartin, A. Greco, H. Helal, Q. O. Hill, L. P. Lee,   |
 |  J.-H. Li, E. B. Linscott, G. Moynihan, D. D. O`Regan,        |
 |  O. K. Okan, M. J. S. Phipps, C. J. Pickard,                  |
 |  J. C. A. Prentice, M. I. J. Probert, L. E. Ratcliff,         |
 |  M. Robinson, A. Ruiz Serrano, J. S. Spencer, E. W. Tait,     |
 |  G. Teobaldi, D. Turban, V. Vitale, K. A. Wilkinson,          |
 |  C. Weber, J. C. Womack, N. Yeung and T. J. Zuehlsdorff       |
 |                                                               |
 |                                   Copyright (c) 2004-2020     |
 |                                                               |
 |  Please cite:                                                 |
 |  "Introducing ONETEP: Linear-scaling density functional       |
 |   simulations on parallel computers".                         |
 |   C.-K. Skylaris, P. D. Haynes, A. A. Mostofi, M. C. Payne.   |
 |   J. Chem. Phys. 122 084119 (2005).                           |
 |                                                               |
 |          in all publications arising from your use of ONETEP. |
 |                                                               |
 +---------------------------------------------------------------+
 |                                                               |
 |   ONETEP is based on developments described in the following  |
 |   publications:                                               |
 |                                                               |
 |  "Nonorthogonal generalized Wannier function pseudopotential  |
 |   plane-wave method".                                         |
 |   C.-K. Skylaris, A. A. Mostofi, P. D. Haynes, O. Dieguez,    |
 |   M. C. Payne.                                                |
 |   Phys. Rev. B 66 035119 (2002).                              |
 |                                                               |
 |  "Preconditioned iterative minimization for linear-scaling    |
 |   electronic structure calculations".                         |
 |   A. A. Mostofi, P. D. Haynes, C.-K. Skylaris, M. C. Payne.   |
 |   J. Chem. Phys. 119(17), pp.8842-8848 (2003).                |
 |                                                               |
 |  "Total-energy calculations on a real space grid with         |
 |   localized functions and a plane-wave basis".                |
 |   A. A. Mostofi, C.-K. Skylaris, P. D. Haynes, M. C. Payne.   |
 |   Comput. Phys. Commun. 147, pp.788-802 (2002).               |
 |                                                               |
 |  "Accurate kinetic energy evaluation in electronic structure  |
 |   calculations with localized functions on real space grids"  |
 |   C.-K. Skylaris, A. A. Mostofi, P. D. Haynes, C. J. Pickard, |
 |   M. C. Payne.                                                |
 |   Comput. Phys. Commun. 140, pp.315-322 (2001).               |
 |                                                               |
 |  "Accurate ionic forces and geometry optimization in linear-  |
 |   scaling density-functional theory with local orbitals"      |
 |   N. D. M. Hine, M. Robinson, P. D. Haynes, C.-K. Skylaris,   |
 |   M. C. Payne, and A. A. Mostofi.                             |
 |   Phys. Rev. B 83 195102 (2011).                              |
 |                                                               |
 +---------------------------------------------------------------+

Job started: 29-06-2020 12:29 (+0100)
 
Reading parameters from file "22/592nano.dat" ...... done

If your calculation crashes here, before "Checking processes and threads..."
is displayed, then your stack size is insufficient.
If so, use "ulimit -s unlimited" at runtime.
You can disable this check with "check_stack_size F".

Checking processes and threads...
   Determining the default number of threads...
      No default threads set at compilation time: defaulting to 1.
      OpenMP library call suggests 4 threads.
      Hybrid MPI-OpenMP compilation detected.
      Number of MPI processes > 1.
      OMP_NUM_THREADS environment variable present and
      its value matches the one obtained from the OpenMP library call.
      Using this value as default.
      Default threads: 4
      Default applies to threads_max and threads_num_fftboxes.
      Settings in the input file override this default.
   ... done

   Running with 150 MPI processes.
   There are 10 MPI processes running on the same node as the root process.
   Each MPI process is using: 
               1 threads for simulation cell FFTs.
               1 threads for parallel FFT box operations.
               4 threads for loops over batched FFT box operations.
               4 threads in other parallel regions.
... done

Basic input checks...
Resetting ngwf_cg_rotate to TRUE for EDFT calculations
... done

Reading geometry and species blocks from file "22/592nano.dat" ...    
  Number of PPD points along a3 set to 1.  This is 
  the default value, it may have been provided also in the input file.
... done
 Writing xyz coordinates to file "22/592nano.xyz" ... done


--------------------------------------------------------------------------------
---------------------------------- INPUT FILE ----------------------------------
--------------------------------------------------------------------------------

task : singlepoint                                                              
write_nbo T                                                                     
ddec_classical_hirshfeld T                                                      
do_properties : true                                                            
dx_format T                                                                     
edft T                                                                          
output_detail VERBOSE                                                           
write_xyz T                                                                     
dispersion 4                                                                    
xc_functional PBE                                                               
cutoff_energy 830 eV                                                            
paw T                                                                           
geom_disp_tol 0.015 bohr                                                        
geom_energy_tol 1.5E-6 hartree                                                  
geom_force_tol 0.01 "ha/bohr"                                                   
%BLOCK SPECIES_LDOS_GROUPS                                                      
C                                                                               
H                                                                               
Li                                                                              
%ENDBLOCK SPECIES_LDOS_GROUPS                                                   
EDFT_MAXIT 30                                                                   
pdos_max_l = 2                                                                  
dos_smear  0.1 eV                                                               
popn_calculate T                                                                
PDOS_PSEUDOATOMIC T                                                             
PDOS_REDUCE_SWS F                                                               
PDOS_CONSTRUCT_BASIS F                                                          
PDOS_LOWDIN T                                                                   
PDOS_ORTH_ATOM_BLOCKS F                                                         
PDOS_LCAO_OPTIMIZE F                                                            
pdos_optados_output T                                                           
homo_plot 0                                                                     
lumo_plot 0                                                                     
homo_dens_plot -1                                                               
lumo_dens_plot -1                                                               
%BLOCK SPECIES                                                                  
C C 6 4 9.0                                                                     
H H 1 1 9.0                                                                     
Li Li 3 5 9.0                                                                   
%ENDBLOCK SPECIES                                                               
%BLOCK SPECIES_POT                                                              
C "~/pp/paw/c_pbe_abinit.paw"                                                   
H "~/pp/paw/h_pbe_abinit.paw"                                                   
Li "~/pp/paw/li_pbe_abinit.paw"                                                 
%ENDBLOCK SPECIES_POT                                                           
%BLOCK SPECIES_ATOMIC_SET                                                       
C "SOLVE conf=2s2 2p2"                                                          
H "SOLVE conf=1s1"                                                              
Li "SOLVE conf=1s2 2s1 2p0"                                                     
%ENDBLOCK SPECIES_ATOMIC_SET                                                    
%BLOCK LATTICE_CART                                                             
94.486315650000      0.000000000000       0.000000000000                        
0.000000000000       94.486315650000      0.000000000000                        
0.000000000000       0.000000000000       94.486315650000                       
%ENDBLOCK LATTICE_CART                                                          
%BLOCK POSITIONS_ABS                                                            
C 45.470698 50.722650 30.690602                                                 
C 45.408084 50.570253 36.806967                                                 
C 46.822394 53.056843 30.728970                                                 
C 48.097998 50.569824 36.820385                                                 
C 49.515398 48.393254 30.717172                                                 
C 49.441326 48.241137 36.807341                                                 
C 50.863604 50.724382 30.748609                                                 
C 52.131100 48.242119 36.793849                                                 
C 45.478695 55.391481 30.699141                                                 
C 45.416402 55.233270 36.821847                                                 
C 46.833552 57.722296 30.676591                                                 
C 48.106683 55.234034 36.842204                                                 
C 49.517731 53.053542 30.755492                                                 
C 49.445479 52.896408 36.837875                                                 
C 50.871225 55.382866 30.739727                                                 
C 52.135236 52.897768 36.831255                                                 
C 45.388543 50.509465 42.986011                                                 
C 45.383369 50.418578 49.062876                                                 
C 46.737243 52.839232 42.978530                                                 
C 48.077263 50.420664 49.032971                                                 
C 49.427032 48.183654 42.943535                                                 
C 49.427132 48.083049 49.060820                                                 
C 50.774312 50.510581 42.939783                                                 
C 52.123862 48.084939 49.130035                                                 
C 45.394565 55.167797 42.986831                                                 
C 45.381567 55.091380 49.093172                                                 
C 46.743390 57.495710 42.966281                                                 
C 48.073418 55.093858 49.045682                                                 
C 49.430304 52.837267 42.962499                                                 
C 49.417937 52.758693 49.019867                                                 
C 50.778501 55.160153 42.962014                                                 
C 52.116583 52.760534 49.050960                                                 
C 57.616652 48.393422 30.676739                                                 
C 57.508650 48.237466 36.728245                                                 
C 58.963733 50.714628 30.688612                                                 
C 60.226948 48.241545 36.688789                                                 
C 57.510786 48.189576 42.692635                                                 
C 57.491413 48.088535 49.530840                                                 
C 58.859462 50.524505 42.666057                                                 
C 60.219243 48.105914 49.834023                                                 
C 53.563211 50.721632 30.744959                                                 
C 53.473367 50.569353 36.802496                                                 
C 54.911915 53.047094 30.761176                                                 
C 56.169517 50.567941 36.770347                                                 
C 53.469339 50.513631 42.891560                                                 
C 53.465232 50.427554 49.142933                                                 
C 54.816429 52.838661 42.895668                                                 
C 56.155497 50.434705 49.319436                                                 
C 57.628249 43.747782 30.665333                                                 
C 57.512844 43.578789 36.696564                                                 
C 58.964579 46.064711 30.636778                                                 
C 60.229893 43.600172 36.678169                                                 
C 57.516595 43.531849 42.699086                                                 
C 57.525164 43.425260 49.517377                                                 
C 58.860597 45.844181 42.645657                                                 
C 60.226362 43.452071 49.602195                                                 
C 53.566994 46.069351 30.709791                                                 
C 53.477646 45.910688 36.759284                                                 
C 54.914181 48.398030 30.711215                                                 
C 56.172078 45.913090 36.727081                                                 
C 53.465303 45.861965 42.822697                                                 
C 53.471479 45.753149 49.226719                                                 
C 54.811424 48.188403 42.819846                                                 
C 56.168724 45.758381 49.412950                                                 
C 57.619461 57.702360 30.812956                                                 
C 57.524424 57.550154 36.866780                                                 
C 58.961600 60.082271 30.807164                                                 
C 60.238931 57.527148 36.855286                                                 
C 57.521730 57.478281 42.943892                                                 
C 57.507278 57.428808 49.029931                                                 
C 58.862637 59.828671 42.980770                                                 
C 60.242247 57.391549 49.058474                                                 
C 45.501127 64.735113 30.588266                                                 
C 45.455280 64.565845 36.775910                                                 
C 46.896931 67.082537 30.614309                                                 
C 48.135012 64.572301 36.914715                                                 
C 49.537218 62.375870 30.399840                                                 
C 49.484194 62.225637 36.940348                                                 
C 50.909297 64.735062 30.125251                                                 
C 52.177452 62.218350 37.057384                                                 
C 45.396528 64.493144 42.754264                                                 
C 45.411819 64.425838 49.750090                                                 
C 46.773048 66.835070 42.693480                                                 
C 48.093558 64.443162 49.669075                                                 
C 49.437342 62.135043 42.811885                                                 
C 49.447778 62.104506 49.407705                                                 
C 50.809444 64.481961 42.638940                                                 
C 52.138680 62.106965 49.373575                                                 
C 53.588038 60.036977 30.563569                                                 
C 53.506710 59.884200 36.945523                                                 
C 54.957610 62.393615 30.428725                                                 
C 56.200015 59.873713 36.936896                                                 
C 53.488672 59.807091 42.933717                                                 
C 53.461055 59.777020 49.138453                                                 
C 54.853010 62.147524 42.915165                                                 
C 56.169126 59.766485 49.058295                                                 
C 57.611647 53.032248 30.751081                                                 
C 57.511597 52.894175 36.784606                                                 
C 58.964561 55.370931 30.810497                                                 
C 60.230346 52.886551 36.757501                                                 
C 57.514103 52.844699 42.816609                                                 
C 57.499736 52.768720 49.278067                                                 
C 58.862426 55.167987 42.863429                                                 
C 60.233772 52.765767 49.427550                                                 
C 45.494109 60.055809 30.621461                                                 
C 45.432843 59.893170 36.805976                                                 
C 46.860794 62.383657 30.541690                                                 
C 48.125307 59.894818 36.849106                                                 
C 49.529673 57.717108 30.674489                                                 
C 49.458388 57.561449 36.864163                                                 
C 50.889143 60.048502 30.533056                                                 
C 52.148764 57.558201 36.877032                                                 
C 45.399903 59.825504 42.934026                                                 
C 45.389489 59.761373 49.310787                                                 
C 46.753957 62.149434 42.852419                                                 
C 48.087029 59.771304 49.234854                                                 
C 49.433583 57.489109 42.955086                                                 
C 49.423267 57.436255 49.089313                                                 
C 50.789232 59.817246 42.908557                                                 
C 52.114839 57.437909 49.059963                                                 
C 53.563114 55.375265 30.756595                                                 
C 53.483637 55.224588 36.846901                                                 
C 54.911062 57.715246 30.720668                                                 
C 56.178701 55.220354 36.831174                                                 
C 53.470355 55.158656 42.943287                                                 
C 53.458818 55.091569 49.044752                                                 
C 54.825966 57.488139 42.953804                                                 
C 56.156872 55.078551 49.104190                                                 
H 27.258819 41.374739 29.818144                                                 
H 28.247241 39.480035 36.820091                                                 
H 27.204427 41.190098 42.884788                                                 
H 28.231207 39.324396 50.177143                                                 
H 41.847454 30.304716 29.785438                                                 
C 42.893476 32.088586 29.798871                                                 
H 44.500747 30.127755 37.022994                                                 
H 41.756047 30.069666 42.839827                                                 
C 42.790625 31.859717 42.879117                                                 
H 44.412902 29.968561 49.391899                                                 
H 29.597201 37.290063 29.708464                                                 
C 30.640173 39.073237 29.734994                                                 
H 32.274974 37.143463 36.970593                                                 
H 33.712561 34.896449 29.592846                                                 
C 34.735617 36.691494 29.623876                                                 
H 29.517279 37.125595 42.869439                                                 
C 30.550692 38.916367 42.854903                                                 
H 32.276311 36.997497 50.347521                                                 
H 33.567736 34.748013 42.833759                                                 
C 34.609986 36.534275 42.857765                                                 
H 37.815057 32.601400 29.473749                                                 
C 38.825084 34.405383 29.504807                                                 
H 40.429896 32.446027 37.082030                                                 
H 37.674683 32.385364 42.776413                                                 
C 38.696391 34.179709 42.828488                                                 
H 40.369507 32.307694 50.058769                                                 
H 46.495912 30.307462 30.293135                                                 
H 46.433274 30.107287 42.973565                                                 
H 25.849449 48.213375 36.969853                                                 
C 27.915588 48.224196 36.939530                                                 
H 25.825312 48.047438 50.143733                                                 
C 27.892520 48.065842 50.105168                                                 
H 25.883167 43.516285 36.896760                                                 
H 27.253132 46.094657 29.607297                                                 
C 27.950755 43.517335 36.875183                                                 
H 25.866839 43.362634 50.199569                                                 
H 27.196452 45.844499 42.682891                                                 
C 27.933861 43.362565 50.179582                                                 
H 25.894528 57.638673 37.070019                                                 
H 27.323948 60.112271 29.729336                                                 
C 27.962710 57.640095 37.055309                                                 
H 25.818558 57.443570 49.378423                                                 
H 27.217367 59.860455 43.142559                                                 
C 27.884384 57.437702 49.449375                                                 
H 25.857729 52.950808 37.051899                                                 
H 27.306390 55.446944 29.584298                                                 
C 27.924489 52.937024 37.019958                                                 
H 25.797207 52.740481 49.804725                                                 
H 27.212400 55.208624 43.129836                                                 
C 27.865700 52.740052 49.782342                                                 
C 29.324786 41.374616 29.804424                                                 
C 29.263249 41.280089 36.829342                                                 
C 30.602596 43.740531 29.820418                                                 
C 31.955078 41.212387 36.846555                                                 
C 33.336446 38.977514 29.709217                                                 
C 33.315976 38.929756 36.908381                                                 
C 34.692951 41.379660 29.844330                                                 
C 35.980430 38.865254 37.065856                                                 
C 29.320008 46.089836 29.687726                                                 
C 29.222073 45.892129 36.951403                                                 
C 30.623466 48.413417 29.611692                                                 
C 31.944851 45.879259 36.895684                                                 
C 33.344458 43.715983 29.901028                                                 
C 33.292081 43.560838 36.852249                                                 
C 34.696466 46.070547 29.989070                                                 
C 35.993842 43.562387 36.843105                                                 
C 29.268817 41.169703 42.865638                                                 
C 29.247222 41.125132 50.167007                                                 
C 30.554553 43.538481 42.833218                                                 
C 31.938498 41.070153 50.141356                                                 
C 33.245988 38.829794 42.799052                                                 
C 33.310409 38.787172 50.241999                                                 
C 34.595713 41.193959 42.842176                                                 
C 35.971611 38.739615 50.265952                                                 
C 29.260200 45.850385 42.758040                                                 
C 29.205735 45.740670 50.153013                                                 
C 30.543131 48.205513 42.703074                                                 
C 31.923605 45.733352 50.007083                                                 
C 33.264015 43.520045 42.859651                                                 
C 33.272350 43.417393 50.003554                                                 
C 34.614552 45.862034 42.901422                                                 
C 35.975829 43.418301 49.854772                                                 
C 41.466491 39.066536 29.837309                                                 
C 41.400810 38.896918 36.944290                                                 
C 42.800137 41.402241 30.150393                                                 
C 44.091046 38.904409 36.915278                                                 
C 41.363155 38.850441 42.944003                                                 
C 41.397241 38.755456 49.835456                                                 
C 42.703829 41.189205 43.004232                                                 
C 44.068230 38.751066 49.549575                                                 
C 37.415018 41.380375 29.913063                                                 
C 37.342830 41.238272 36.924247                                                 
C 38.742585 43.719986 30.152567                                                 
C 40.038101 41.234250 36.874936                                                 
C 37.310379 41.187719 42.922466                                                 
C 37.328783 41.103996 49.972797                                                 
C 38.659582 43.520547 42.989286                                                 
C 40.029568 41.079370 49.745667                                                 
C 41.479723 34.383730 29.597790                                                 
C 41.448798 34.242864 37.046035                                                 
C 42.848804 36.733628 29.674935                                                 
C 44.110159 34.212357 37.029019                                                 
C 41.364743 34.152416 42.817317                                                 
C 41.397315 34.097329 49.965960                                                 
C 42.734967 36.504934 42.899544                                                 
C 44.052363 34.043597 49.613008                                                 
C 37.421561 36.658990 29.551942                                                 
C 37.368373 36.575578 36.979110                                                 
C 38.780926 39.044553 29.740878                                                 
C 40.034555 36.525130 37.010620                                                 
C 37.286977 36.464914 42.847098                                                 
C 37.360788 36.445520 50.134081                                                 
C 38.659304 38.846894 42.922516                                                 
C 40.035122 36.380036 50.154501                                                 
C 41.427148 48.393549 30.508519                                                 
C 41.373941 48.238455 36.775931                                                 
C 42.772843 50.725203 30.611100                                                 
C 44.062889 48.239273 36.788778                                                 
C 41.352886 48.182419 43.011190                                                 
C 41.345018 48.081250 49.234020                                                 
C 42.697472 50.511073 43.005943                                                 
C 44.039796 48.080095 49.128042                                                 
C 29.374825 55.436430 29.674519                                                 
C 29.234994 55.262121 37.092966                                                 
C 30.677950 57.762307 29.754637                                                 
C 31.957176 55.273018 37.024943                                                 
C 33.379553 53.096548 29.880642                                                 
C 33.301782 52.915837 36.925302                                                 
C 34.719832 55.418326 30.008844                                                 
C 35.997551 52.908698 36.837232                                                 
C 29.281259 55.200695 43.126366                                                 
C 29.154771 55.050198 49.552825                                                 
C 30.571616 57.502166 43.126693                                                 
C 31.898106 55.080302 49.528189                                                 
C 33.278084 52.864037 43.032235                                                 
C 33.255838 52.739942 49.572763                                                 
C 34.621136 55.181719 43.068223                                                 
C 35.949813 52.746637 49.435362                                                 
C 37.389879 50.735442 30.289857                                                 
C 37.335122 50.573314 36.786450                                                 
C 38.738757 53.070275 30.396260                                                 
C 40.030888 50.572693 36.776444                                                 
C 37.314218 50.518660 43.018010                                                 
C 37.301571 50.414387 49.400210                                                 
C 38.661679 52.849230 43.038729                                                 
C 39.997794 50.416127 49.251922                                                 
C 41.439873 43.725311 30.280440                                                 
C 41.379161 43.567979 36.805917                                                 
C 42.778740 46.060501 30.479690                                                 
C 44.072218 43.572306 36.799074                                                 
C 41.351775 43.516623 43.016260                                                 
C 41.360040 43.410383 49.450413                                                 
C 42.698041 45.852342 43.013790                                                 
C 44.052730 43.408790 49.284303                                                 
C 29.349474 50.758795 29.739697                                                 
C 29.195264 50.578675 36.986247                                                 
C 30.653925 53.109058 29.616131                                                 
C 31.945244 50.578127 36.910469                                                 
C 33.363188 48.402424 29.874020                                                 
C 33.297058 48.235130 36.863046                                                 
C 34.701551 50.742264 30.029749                                                 
C 35.992061 48.238760 36.792530                                                 
C 29.263926 50.535715 42.902269                                                 
C 29.159490 50.421736 49.942398                                                 
C 30.554478 52.866350 43.034564                                                 
C 31.909543 50.419893 49.789719                                                 
C 33.280807 48.191281 42.861637                                                 
C 33.265780 48.089184 49.809063                                                 
C 34.620959 50.526015 42.977788                                                 
C 35.963755 48.084101 49.576389                                                 
C 37.390374 46.057881 30.192000                                                 
C 37.340451 45.900637 36.793173                                                 
C 38.734085 48.394300 30.353939                                                 
C 40.028208 45.901264 36.781407                                                 
C 37.312683 45.857451 42.974312                                                 
C 37.314632 45.753217 49.594928                                                 
C 38.655998 48.185007 43.005007                                                 
C 40.001459 45.747375 49.405959                                                 
C 45.470699 32.089776 30.083638                                                 
C 45.539281 31.913014 36.968660                                                 
C 46.889858 34.387165 30.177937                                                 
C 48.120710 31.933814 36.865032                                                 
H 49.174550 30.154203 36.839880                                                 
H 50.528822 32.612769 30.618883                                                 
C 45.524680 36.730101 30.015619                                                 
C 45.473176 36.565329 36.950380                                                 
C 46.852152 39.066172 30.284264                                                 
C 48.150810 36.579026 36.838037                                                 
C 49.517471 34.408130 30.463095                                                 
C 49.526253 34.243774 36.810278                                                 
C 50.906240 36.677799 30.579900                                                 
C 52.163362 34.288646 36.731369                                                 
C 45.377891 31.884589 42.954407                                                 
C 45.454855 31.753266 49.411569                                                 
C 46.788301 34.187213 42.965040                                                 
C 48.089392 31.743808 49.280000                                                 
H 49.109028 29.947375 49.167114                                                 
H 50.458497 32.435448 42.862320                                                 
C 45.415465 36.519276 42.963260                                                 
C 45.435951 36.400354 49.483328                                                 
C 46.755229 38.855529 42.969317                                                 
C 48.123372 36.399604 49.351466                                                 
C 49.427872 34.228415 42.903803                                                 
C 49.523033 34.037477 49.356901                                                 
C 50.799304 36.503810 42.810084                                                 
C 52.169609 34.079468 49.570224                                                 
H 53.202197 32.498184 36.725156                                                 
H 53.209455 32.280915 49.610359                                                 
C 57.636541 39.121156 30.707992                                                 
C 57.534561 38.901580 36.673197                                                 
C 58.974002 41.394127 30.659963                                                 
C 60.245262 38.979707 36.689424                                                 
C 57.512504 38.917001 42.522559                                                 
C 57.560136 38.748894 49.794496                                                 
C 58.860512 41.185214 42.662712                                                 
C 60.256813 38.833489 49.686688                                                 
C 45.472296 46.061414 30.577931                                                 
C 45.411975 45.906728 36.790125                                                 
C 46.819444 48.392298 30.678437                                                 
C 48.099535 45.909816 36.792600                                                 
C 49.524420 43.737081 30.634775                                                 
C 49.451195 43.579227 36.776367                                                 
C 50.870556 46.065360 30.699446                                                 
C 52.141022 43.583106 36.750417                                                 
C 45.388125 45.851825 42.994248                                                 
C 45.393181 45.746979 49.140492                                                 
C 46.732906 48.179567 42.976664                                                 
C 48.087660 45.749950 49.095059                                                 
C 49.428699 43.527154 42.919438                                                 
C 49.444621 43.412940 49.151958                                                 
C 50.775109 45.854270 42.901060                                                 
C 52.135585 43.416659 49.218567                                                 
C 53.595733 41.413291 30.721370                                                 
C 53.494860 41.251520 36.715862                                                 
C 54.931722 43.743483 30.697403                                                 
C 56.185348 41.262289 36.689436                                                 
C 53.470211 41.212797 42.701545                                                 
C 53.493873 41.078333 49.407786                                                 
C 54.816399 43.528570 42.747374                                                 
C 56.204346 41.100229 49.563602                                                 
H 57.240663 34.850215 36.677003                                                 
H 58.679929 37.336288 30.764380                                                 
H 57.245322 34.672897 50.078433                                                 
H 58.552692 37.129373 42.383724                                                 
C 45.491681 41.403553 30.320414                                                 
C 45.430213 41.248867 36.826667                                                 
C 46.826376 43.731193 30.530724                                                 
C 48.116507 41.248491 36.792172                                                 
C 49.526172 39.055044 30.532712                                                 
C 49.479078 38.914131 36.779393                                                 
C 50.881004 41.404478 30.656828                                                 
C 52.160851 38.921815 36.720024                                                 
C 45.398620 41.191285 42.991718                                                 
C 45.408662 41.076633 49.320096                                                 
C 46.736437 43.520122 42.981440                                                 
C 48.107924 41.073601 49.230152                                                 
C 49.436533 38.860429 42.886062                                                 
C 49.468572 38.744867 49.323771                                                 
C 50.779168 41.195762 42.843875                                                 
C 52.157402 38.741493 49.465065                                                 
C 53.587307 36.742716 30.639617                                                 
C 53.528335 36.571473 36.696964                                                 
C 54.972846 39.042742 30.732893                                                 
C 56.198483 36.638941 36.671428                                                 
C 53.460730 36.565613 42.593572                                                 
C 53.527743 36.365359 49.706530                                                 
C 54.824539 38.853699 42.469519                                                 
C 56.201264 36.449986 49.916507                                                 
H 61.268185 37.182018 36.712520                                                 
H 62.691867 39.661187 30.655710                                                 
H 61.289184 37.044913 49.679853                                                 
H 62.578559 39.451879 42.783259                                                 
H 28.259295 61.673568 37.011778                                                 
H 28.179079 61.507972 49.435094                                                 
C 29.392792 60.123370 29.721043                                                 
C 29.274741 59.872965 37.020413                                                 
C 30.685673 62.374849 29.673489                                                 
C 31.971465 59.939333 37.021090                                                 
C 33.377428 57.763295 29.871765                                                 
C 33.307590 57.588568 36.995202                                                 
C 34.721079 60.083275 29.852989                                                 
C 36.007075 57.584337 36.933271                                                 
H 29.661038 64.171509 29.643847                                                 
H 32.293340 64.003179 37.151352                                                 
C 33.379719 62.446814 29.685764                                                 
C 33.330760 62.215208 37.068998                                                 
C 34.751802 64.740551 29.723329                                                 
C 36.009480 62.277575 37.125190                                                 
C 29.285951 59.879562 43.107357                                                 
C 29.206189 59.715456 49.487980                                                 
C 30.562920 62.125544 42.991298                                                 
C 31.901874 59.792329 49.630124                                                 
C 33.277355 57.518139 43.073854                                                 
C 33.244852 57.410180 49.559009                                                 
C 34.609228 59.839954 42.958969                                                 
C 35.962788 57.419347 49.572895                                                 
H 29.535032 63.919958 42.935042                                                 
H 32.241632 63.855916 49.953749                                                 
C 33.262427 62.202995 42.879047                                                 
C 33.276756 62.065878 49.888250                                                 
C 34.621982 64.488845 42.765824                                                 
C 35.941083 62.103662 50.073976                                                 
C 41.446332 57.736896 30.509425                                                 
C 41.390635 57.571582 36.811921                                                 
C 42.795807 60.067165 30.539774                                                 
C 44.081356 57.569585 36.804452                                                 
C 41.357836 57.506320 42.995005                                                 
C 41.344348 57.424910 49.340262                                                 
C 42.702839 59.833653 42.940597                                                 
C 44.039469 57.431271 49.220804                                                 
C 37.430848 60.085596 30.074358                                                 
C 37.362114 59.903865 36.962648                                                 
C 38.782370 62.420873 30.120106                                                 
C 40.055238 59.909579 36.847698                                                 
C 37.322116 59.846165 42.918374                                                 
C 37.307338 59.736072 49.749793                                                 
C 38.669968 62.177417 42.809437                                                 
C 40.002963 59.755710 49.588470                                                 
C 41.432184 53.062314 30.567264                                                 
C 41.377585 52.902882 36.794763                                                 
C 42.786587 55.395497 30.616386                                                 
C 44.066695 52.903002 36.806994                                                 
C 41.355653 52.845536 43.019579                                                 
C 41.340403 52.751478 49.186372                                                 
C 42.702793 55.171457 43.008541                                                 
C 44.035154 52.755685 49.096194                                                 
C 37.409004 55.410664 30.255821                                                 
C 37.348748 55.243000 36.853228                                                 
C 38.762121 57.742948 30.307160                                                 
C 40.035929 55.241365 36.815138                                                 
C 37.321781 55.178373 43.044764                                                 
C 37.302057 55.083660 49.402048                                                 
C 38.670880 57.507917 43.006629                                                 
C 39.994715 55.087906 49.294148                                                 
C 41.424997 67.109198 30.435090                                                 
C 41.450534 66.868685 36.715378                                                 
C 42.857523 69.397630 30.615261                                                 
C 44.088359 66.899924 36.725364                                                 
C 41.324649 66.850361 42.598603                                                 
C 41.367714 66.714039 50.049438                                                 
C 42.751023 69.144784 42.536153                                                 
C 44.035839 66.754378 50.063358                                                 
H 37.768250 68.878016 30.030707                                                 
H 40.422243 68.664103 36.726261                                                 
H 37.652293 68.619221 42.510478                                                 
H 40.341661 68.500122 50.239789                                                 
C 41.455666 62.403163 30.402757                                                 
C 41.411584 62.240459 36.795236                                                 
C 42.810658 64.745005 30.513751                                                 
C 44.091258 62.234700 36.772412                                                 
C 41.358946 62.162620 42.843731                                                 
C 41.363522 62.084938 49.699435                                                 
C 42.708435 64.499644 42.730339                                                 
C 44.039762 62.089472 49.564067                                                 
H 33.713900 66.527660 29.662829                                                 
H 33.583316 66.275932 42.719210                                                 
C 37.422306 64.807057 29.927932                                                 
C 37.393813 64.554305 36.936961                                                 
C 38.791814 67.081324 30.101985                                                 
C 40.055974 64.599240 36.795103                                                 
C 37.302733 64.553962 42.693176                                                 
C 37.330315 64.381294 50.083271                                                 
C 38.678330 66.825270 42.609799                                                 
C 39.994207 64.439344 49.953548                                                 
C 61.676829 41.462081 30.622169                                                 
C 61.524438 41.215945 36.689867                                                 
C 62.968334 43.699928 30.577488                                                 
H 63.590530 41.244388 36.713423                                                 
C 61.678229 46.076754 30.591868                                                 
C 61.507403 45.890493 36.665151                                                 
C 62.972363 48.374865 30.587724                                                 
H 63.575052 45.892385 36.652813                                                 
H 65.037754 43.716295 30.564134                                                 
C 61.564701 41.252413 42.719936                                                 
C 61.528152 41.087040 49.556221                                                 
C 62.871408 43.480055 42.662966                                                 
H 63.591593 41.113085 49.429333                                                 
C 61.587470 45.858729 42.550193                                                 
C 61.510210 45.767552 49.732153                                                 
C 62.883102 48.177625 42.474284                                                 
H 63.578737 45.767609 49.788165                                                 
H 64.940234 43.488663 42.678194                                                 
C 61.706847 55.340931 30.798088                                                 
C 61.514250 55.230877 36.805769                                                 
C 62.988513 57.737380 30.837922                                                 
H 63.583132 55.226767 36.814178                                                 
H 65.061391 53.031578 30.687154                                                 
C 61.578560 55.153898 42.799511                                                 
C 61.524171 55.080013 49.263285                                                 
C 62.869295 57.529940 42.896680                                                 
H 63.592669 55.081466 49.286962                                                 
H 64.942461 52.875036 42.553726                                                 
C 61.694549 50.706533 30.649220                                                 
C 61.509398 50.559569 36.701721                                                 
C 62.992212 53.033381 30.687172                                                 
H 65.041670 48.368149 30.574986                                                 
C 61.594671 50.531107 42.533171                                                 
C 61.510113 50.442932 49.716203                                                 
C 62.873560 52.867297 42.627997                                                 
H 64.950079 48.174299 42.406637                                                 
H 41.835439 71.194346 30.629398                                                 
H 44.462139 70.980902 36.684350                                                 
H 41.722711 70.935306 42.416655                                                 
H 44.392392 70.844331 50.054911                                                 
C 45.487950 69.379640 30.733463                                                 
C 45.510124 69.197249 36.764105                                                 
H 46.529945 71.161305 30.862264                                                 
C 48.089342 69.215407 36.959321                                                 
C 49.558442 67.023822 30.400836                                                 
C 49.503965 66.917148 37.106601                                                 
H 50.603038 68.814950 30.451916                                                 
C 52.160257 66.873695 37.367714                                                 
H 49.122837 71.009369 37.027468                                                 
C 45.365887 69.132665 42.592960                                                 
C 45.441046 69.059942 50.008192                                                 
H 46.413567 70.913829 42.523273                                                 
C 48.045377 69.071062 49.912937                                                 
C 49.431929 66.781361 42.686324                                                 
C 49.463939 66.783157 49.890670                                                 
H 50.468790 68.570562 42.519782                                                 
C 52.143643 66.750280 49.938315                                                 
H 49.070565 70.867850 49.849885                                                 
H 57.274445 66.280430 37.261732                                                 
H 57.226984 66.205029 49.408243                                                 
H 53.186724 68.666506 37.541643                                                 
H 53.170872 68.546225 50.041126                                                 
C 57.601723 62.353063 30.620491                                                 
C 57.549570 62.228460 37.013391                                                 
H 58.641542 64.143860 30.651212                                                 
C 60.255550 62.147773 36.954563                                                 
C 57.513190 62.088969 42.974311                                                 
C 57.520622 62.144468 49.110432                                                 
H 58.549774 63.880775 42.964095                                                 
C 60.225228 62.049330 49.018822                                                 
C 53.583914 64.665753 30.133719                                                 
C 53.556828 64.571833 37.289740                                                 
C 56.224124 64.497401 37.189331                                                 
C 53.475267 64.425024 42.774604                                                 
C 53.533509 64.467074 49.630374                                                 
C 56.180218 64.420136 49.389704                                                 
C 61.671465 60.001037 30.872892                                                 
C 61.532519 59.906565 36.899288                                                 
H 62.695027 61.796104 30.917177                                                 
H 63.600096 59.879967 36.900670                                                 
H 65.054823 57.735880 30.852801                                                 
H 61.280659 63.945352 36.993262                                                 
C 61.569550 59.758824 42.981339                                                 
C 61.528329 59.773282 48.989016                                                 
H 62.579911 61.561238 43.029044                                                 
H 63.594016 59.760608 48.951619                                                 
H 64.937175 57.515892 42.875502                                                 
H 61.263608 63.838239 49.003541                                                 
H 63.574054 50.445099 49.844878                                                 
H 36.325840 34.656696 50.264203                                                 
H 36.300332 66.169979 50.239802                                                 
H 27.195671 50.542036 42.845215                                                 
H 54.518700 66.214237 42.617376                                                 
H 63.576462 50.558712 36.682549                                                 
H 54.487932 34.774837 42.412824                                                 
H 36.337311 34.785959 37.073519                                                 
H 36.366876 66.348091 37.028878                                                 
H 54.628663 66.459590 30.032703                                                 
H 27.282633 50.770792 29.610370                                                 
H 54.622784 34.955709 30.684619                                                 
Li 31.926394 41.465498 26.497508                                                
Li 30.371280 48.004137 33.461520                                                
Li 58.893121 59.739899 52.360663                                                
Li 35.975070 38.611263 33.200315                                                
Li 60.311472 57.737679 27.506052                                                
Li 42.762699 36.271000 33.559973                                                
Li 30.438740 57.407007 52.848166                                                
Li 35.961035 62.488614 46.260261                                                
Li 46.962138 33.968081 52.718606                                                
Li 30.236665 47.904158 46.542606                                                
Li 52.443234 39.037625 27.335487                                                
Li 35.529475 38.863225 46.365409                                                
Li 44.313087 67.178375 27.288140                                                
Li 35.684180 62.626555 33.303752                                                
Li 30.381019 53.330083 33.504346                                                
Li 40.153408 36.139653 46.318264                                                
Li 55.290060 38.226552 46.248263                                                
Li 60.509855 48.231906 46.013497                                                
Li 43.909837 66.971784 46.135360                                                
Li 51.456505 65.714952 46.222686                                                
Li 51.653911 65.155531 33.805752                                                
Li 38.993760 65.989440 39.743640                                                
%ENDBLOCK POSITIONS_ABS                                                         

--------------------------------------------------------------------------------
-------------------------------- END INPUT FILE --------------------------------
--------------------------------------------------------------------------------


 
<<<<<<<<<<<<<<<<<<<<<<<<<<<<<<<<< Full system >>>>>>>>>>>>>>>>>>>>>>>>>>>>>>>>>>
<<<<<<<<<<<<<<<<<<<<<<<<<<< PAW Dataset information >>>>>>>>>>>>>>>>>>>>>>>>>>>
File: ~/pp/paw/c_pbe_abinit.paw; rc = 1.25 bohr; shape type =  3; rshape = 1.25 bohr;
  Atomic number:  6;  ionic charge:  4.000000
    Partial Wave 1: l = 0
    Partial Wave 2: l = 0
    Partial Wave 3: l = 1
    Partial Wave 4: l = 1
  Core charge supplied for Nonlinear Core Corrections
File: ~/pp/paw/h_pbe_abinit.paw; rc = 0.90 bohr; shape type =  3; rshape = 0.90 bohr;
  Atomic number:  1;  ionic charge:  1.000000
    Partial Wave 1: l = 0
    Partial Wave 2: l = 0
File: ~/pp/paw/li_pbe_abinit.paw; rc = 1.42 bohr; shape type =  3; rshape = 1.42 bohr;
  Atomic number:  3;  ionic charge:  3.000000
    Partial Wave 1: l = 0
    Partial Wave 2: l = 0
    Partial Wave 3: l = 0
    Partial Wave 4: l = 1
    Partial Wave 5: l = 1
<<<<<<<<<<<<<<<<<<<<<<<<<<<<<<<<<<<<<<< >>>>>>>>>>>>>>>>>>>>>>>>>>>>>>>>>>>>>>>

-------------------------- Atom counting information ---------------------------
Symbol    Natoms    Nngwfs    Nprojs
  C        484      1936      3872
  H        108       108       216
  Li        22       110       198
.......   ......    ......    ......
Totals:    614      2154      4286
--------------------------------------------------------------------------------

=============================== PSINC grid sizes ===============================
                      Simulation cell:  189 x 189 x 189
                              FFT-box:  117 x 117 x 117
                                  PPD:    7 x   7 x   1
Grid space d1=  0.499927596032a0 (KE cutoff=  30.39413Eh = 827.06648eV)
Grid space d2=  0.499927596032a0 (KE cutoff=  30.39413Eh = 827.06648eV)
Grid space d3=  0.499927596032a0 (KE cutoff=  30.39413Eh = 827.06648eV)
================================================================================
  
WARNING in cell_grid_distribute:
Average of less than one 23-slab per node, so workload cannot be
equally balanced between nodes.

********************* Fourier parallelisation information **********************
       Coarse grid (whole simulation cell) dimensions:    189   189   189
          Real-space ('12') slabs/node (min max mean):      1     2     1
         Recip-space ('23') slabs/node (min max mean):      0     1     0
********************************************************************************

********************* Fourier parallelisation information **********************
       Double grid (whole simulation cell) dimensions:    378   378   378
          Real-space ('12') slabs/node (min max mean):      2     3     2
         Recip-space ('23') slabs/node (min max mean):      1     2     1
********************************************************************************

Atom SCF Calculation for C  : Z (AE atom) =   6 : Z (PS atom) =   4
Config String: 2s2 2p2
Orbitals (num,occ):  2     2.00 2.00
Orbitals   (num,l):  2        0    1
Real-space Grid (nr,dr,rmax): 1377    0.0065406977    9.0000000000
Spherical Bessel Basis (nsws,lmax,cutoff):   37    2  183.0099912382
Confining potential (l,width,scale):  0    3.0000000000  100.0000000000
Confining potential (l,width,scale):  1    3.0000000000  100.0000000000
  1         -5.4350126632   -1.2715272878    4.5135247139   -1.5681949477
  2         -5.3876836850   -1.3562195125    4.4235426751   -1.5380057521
  3         -5.3928844498   -1.3758175853    4.4021699684   -1.5318377811
  4         -5.3988962903   -1.3800385428    4.3975423583   -1.5307324410
  5         -5.4018428823   -1.3823489590    4.3950111904   -1.5301555648
  6         -5.4033571720   -1.3835805046    4.3936635548   -1.5298576834
  7         -5.4041480647   -1.3842324820    4.3929512000   -1.5297032953
  8         -5.4045641108   -1.3845769138    4.3925755232   -1.5296229456
  9         -5.4047838258   -1.3847587737    4.3923775340   -1.5295810042
 10         -5.4049001347   -1.3848548089    4.3922731819   -1.5295590658
 11         -5.4049618018   -1.3849055476    4.3922181562   -1.5295475724
 12         -5.4049945351   -1.3849323732    4.3921891206   -1.5295415432
 13         -5.4050119258   -1.3849465673    4.3921737867   -1.5295383767
 14         -5.4050211723   -1.3849540841    4.3921656816   -1.5295367119
 15         -5.4050260920   -1.3849580684    4.3921613935   -1.5295358358
 16         -5.4050287113   -1.3849601822    4.3921591228   -1.5295353742
 17         -5.4050301068   -1.3849613045    4.3921579192   -1.5295351307
 18         -5.4050308507   -1.3849619010    4.3921572806   -1.5295350022
 19         -5.4050312476   -1.3849622183    4.3921569415   -1.5295349343
 20         -5.4050314594   -1.3849623873    4.3921567612   -1.5295348984
 21         -5.4050315725   -1.3849624773    4.3921566653   -1.5295348794
 22         -5.4050316330   -1.3849625253    4.3921566143   -1.5295348693
Atom SCF converged after  22 iterations to a total energy of     -5.40503163

Atom SCF Calculation for H  : Z (AE atom) =   1 : Z (PS atom) =   1
Config String: 1s1
Orbitals (num,occ):  1     1.00
Orbitals   (num,l):  1        0
Real-space Grid (nr,dr,rmax): 1377    0.0065406977    9.0000000000
Spherical Bessel Basis (nsws,lmax,cutoff):   37    1  183.0099912382
Confining potential (l,width,scale):  0    3.0000000000  100.0000000000
  1         -0.3605254152   -0.2399954029    0.2820952946   -0.2424203210
  2         -0.4156854077   -0.2398249290    0.2871789324   -0.2464796203
  3         -0.4412552402   -0.2379720642    0.2899127187   -0.2499011370
  4         -0.4517265951   -0.2371980236    0.2908966173   -0.2514141636
  5         -0.4557775773   -0.2369735141    0.2911607883   -0.2519713623
  6         -0.4573363459   -0.2369240355    0.2912108681   -0.2521663171
  7         -0.4579443228   -0.2369187864    0.2912112833   -0.2522344454
  8         -0.4581858602   -0.2369215483    0.2912049187   -0.2522587615
  9         -0.4582834939   -0.2369242589    0.2912002081   -0.2522677042
 10         -0.4583235236   -0.2369258837    0.2911975892   -0.2522710965
 11         -0.4583401154   -0.2369267223    0.2911962825   -0.2522724192
 12         -0.4583470483   -0.2369271266    0.2911956643   -0.2522729467
 13         -0.4583499624   -0.2369273145    0.2911953803   -0.2522731607
 14         -0.4583511926   -0.2369274000    0.2911952521   -0.2522732486
 15         -0.4583517136   -0.2369274385    0.2911951948   -0.2522732850
 16         -0.4583519349   -0.2369274556    0.2911951693   -0.2522733002
 17         -0.4583520290   -0.2369274632    0.2911951581   -0.2522733066
Atom SCF converged after  17 iterations to a total energy of     -0.45835203

Atom SCF Calculation for Li : Z (AE atom) =   3 : Z (PS atom) =   3
Config String: 1s2 2s1 2p0
Orbitals (num,occ):  3     2.00 1.00 0.00
Orbitals   (num,l):  3        0    0    1
Real-space Grid (nr,dr,rmax): 1377    0.0065406977    9.0000000000
Spherical Bessel Basis (nsws,lmax,cutoff):   37    2  183.0099912382
Confining potential (l,width,scale):  0    3.0000000000  100.0000000000
Confining potential (l,width,scale):  1    3.0000000000  100.0000000000
  1         -6.0640888065   -4.6655401716    2.5388576516   -0.9989538799
  2         -6.9627542978   -4.0954079129    2.9808988108   -1.1965571426
  3         -7.2692687601   -3.8889996707    3.2029735703   -1.3193883705
  4         -7.3784440298   -3.8322099748    3.2868571989   -1.3711018151
  5         -7.4170278248   -3.8191968371    3.3144974220   -1.3911175539
  6         -7.4303549880   -3.8172386945    3.3228486489   -1.3986896266
  7         -7.4348052089   -3.8175483495    3.3251259310   -1.4015352495
  8         -7.4362242328   -3.8180607346    3.3256233205   -1.4026016384
  9         -7.4366459715   -3.8184145665    3.3256561549   -1.4029998726
 10         -7.4367560626   -3.8186169740    3.3256001574   -1.4031477379
 11         -7.4367765260   -3.8187239825    3.3255481763   -1.4032021548
 12         -7.4367751741   -3.8187782620    3.3255144587   -1.4032219192
 13         -7.4367707398   -3.8188051288    3.3254952336   -1.4032289600
 14         -7.4367680349   -3.8188156035    3.3254870176   -1.4032309087
 15         -7.4367661982   -3.8188217406    3.3254819951   -1.4032318132
 16         -7.4367650112   -3.8188253257    3.3254789583   -1.4032322224
 17         -7.4367642682   -3.8188274151    3.3254771375   -1.4032324006
 18         -7.4367638134   -3.8188286307    3.3254760529   -1.4032324736
 19         -7.4367635392   -3.8188293370    3.3254754103   -1.4032325004
 20         -7.4367633760   -3.8188297469    3.3254750310   -1.4032325080
 21         -7.4367632796   -3.8188299846    3.3254748079   -1.4032325082
Atom SCF converged after  21 iterations to a total energy of     -7.43676328

Determining parallel strategy ...
... using space-filling curve
... NGWF load balancing: max     17;  min     13;  average     14
... Projector load balancing: max     34;  min     26;  average     29
... done
Calculating Ewald energy ...
              Ewald: real-space energy =   36249.961246
        Ewald: reciprocal-space energy =   35175.375930
         Ewald: (sum_charge)**2 Energy =    2771.893520
         Ewald: (sum_charge**2) Energy =     248.382900
                          Ewald Energy =   68405.060756
======================= Empirical dispersion information =======================
Model : Grimme D2
Dispersion Correction Energy: -0.20814477E+01 Hartree
================================================================================
Basis initialisation ...... NGWF spheres initialised
... Projector spheres initialised
... NGWF tight boxes initialised
... Projector tight boxes initialised
... Tight-boxes gathered
... NGWF basis size (local,global):     275374  41576086
... PAW projector initialisation
... done

============================= Charge Augmentation ==============================
                           Aug box size:   13 x  13 x  13
================================================================================

========================== Sparse matrix information ===========================
                        Overlap matrix filling:  38.22%
                        Density kernel filling: 100.00%
              NGWF-Proj overlap matrix filling:  10.79%
                    Aug Overlap matrix filling:  42.33%
                    Hamiltonian matrix filling:  42.33%
                  NGWF diagonal matrix filling:   0.18%
                             KS matrix filling: 100.00% 
                           KSKS matrix filling: 100.00% 
================================================================================

Sparse matrix initialisation ... done
NGWF initialisation ...... done
============ Calculation of NGWF S^-1 using Hotelling algorithm ================ 
         Iteration  |  Frobenius norm and Maximum abs value    (of I-S*S_n^-1)   
               1       0.46078888E+02     0.99626447E+00
               2       0.45764164E+02     0.99255209E+00
               3       0.45182246E+02     0.98519460E+00
               4       0.44177604E+02     0.97073522E+00
               5       0.42624199E+02     0.94274807E+00
               6       0.40530082E+02     0.88997478E+00
               7       0.37979474E+02     0.79479093E+00
               8       0.35024825E+02     0.77289108E+00
               9       0.31898418E+02     0.75368034E+00
              10       0.28889900E+02     0.73532073E+00
              11       0.25731929E+02     0.71899476E+00
              12       0.21760733E+02     0.70116384E+00
              13       0.16543227E+02     0.67219636E+00
              14       0.10388450E+02     0.62595255E+00
              15       0.48678087E+01     0.55120544E+00
              16       0.17752657E+01     0.43302530E+00
              17       0.81988216E+00     0.26984901E+00
              18       0.35870555E+00     0.10545351E+00
              19       0.77861075E-01     0.16260158E-01
              20       0.39693624E-02     0.90986996E-03
              21       0.11316410E-04     0.28489758E-05
              22       0.10126173E-09     0.27932323E-10
              23       0.44185941E-13     0.35527137E-14
================================================================================
Calculating core density ...
================================= Core Density =================================
               Core den box size:   21 x  21 x  21
================================================================================
 ... done
Up spin density kernel initialisation ...... done

Writing density kernel to file "22/592nano.dkn" ... done

>>> Optimising kernel for current NGWFs:

--------------------------- Ensemble-DFT optimisation --------------------------
Running ScaLAPACK on  150 processor(s).

--------------------------------------------------------------------------------
  Iter                              Commutator    Free_energy(A=E-TS)     DeltaA
#    0                          0.001093550867   -2981.65777728981357  -2.98E+03

Step                       =       0.381966011250
Energy                     =   -2981.629815244323
Entropy (-TS)              =      -0.027962045879
Free energy (A=E-TS)       =   -2981.657777289814
Est. 0K Energy 0.5*(E+A)   =   -2981.643796267068
Residual Non-orthogonality =       0.000000000000
Residual N_electrons       =       0.000000000389

Spin          Integrated_Ne            Fermi_level     Delta_Fermi_level
   1      2110.000000001584        -0.245747521641             -2.46E-01

                           Spin 1          
     Orb      H-eigenvalues     Occupancies
       1 |    -1.9261883786    1.0000000000 | 
                          ------
    1051 |    -0.2540723989    0.9326915293 | 
    1052 |    -0.2524583528    0.8927470259 | 
    1053 |    -0.2517825769    0.8705375253 | 
    1054 |    -0.2501409314    0.8001655143 | 
    1055 |    -0.2467218188    0.5763136783 | 
                 - Gap at zero temperature -
    1056 |    -0.2462565029    0.5400946243 | 
    1057 |    -0.2435319351    0.3318949464 | 
    1058 |    -0.2391831406    0.1117620430 | 
    1059 |    -0.2321414551    0.0134338042 | 
    1060 |    -0.2298810157    0.0066250747 | 
                          ------
    2154 |     0.5630562416    0.0000000000 | 

                       |  Abs_value |  Threshold | Converged
     Delta_Free_energy |   2.98E+03 |   1.00E-06 |        No
     Delta_Energy      |   2.98E+03 |   1.00E-04 |        No
     Delta_Entropy     |   2.80E-02 |   1.00E-04 |        No
     Commutator        |   1.09E-03 |   1.00E-05 |        No
     Delta_Fermi_level |   2.46E-01 |   1.00E-03 |        No

  Line search of the free energy minimum:
  Step_type        Step             Free_energy   Predicted_free_energy
.   Initial    0.000000    -2981.65777728981357
.    Trial1    0.381966    -2980.24502637570595
.    Trial2    0.145898    -2982.21795463803937
. Quadratic    0.133069    -2982.21764087987867    -2982.22321015269472
.     Cubic    0.139893    -2982.21886929350876    -2982.21905775100140

--------------------------------------------------------------------------------
  Iter                              Commutator    Free_energy(A=E-TS)     DeltaA
#    1                          0.000769322948   -2982.21886929350876  -5.61E-01

Step                       =       0.139893208617
Energy                     =   -2982.195212960230
Entropy (-TS)              =      -0.023656332912
Free energy (A=E-TS)       =   -2982.218869293509
Est. 0K Energy 0.5*(E+A)   =   -2982.207041126870
Residual Non-orthogonality =       0.000000000000
Residual N_electrons       =      -0.000000000367

Spin          Integrated_Ne            Fermi_level     Delta_Fermi_level
   1      2109.999999998385        -0.227043281171              1.87E-02

                           Spin 1          
     Orb      H-eigenvalues     Occupancies
       1 |    -1.9173103163    1.0000000000 | 
                          ------
    1051 |    -0.2392028749    0.9789523935 | 
    1052 |    -0.2362525910    0.9482439353 | 
    1053 |    -0.2342048765    0.9056338819 | 
    1054 |    -0.2322322427    0.8373367916 | 
    1055 |    -0.2305114220    0.7493506913 | 
                 - Gap at zero temperature -
    1056 |    -0.2239630764    0.2743522597 | 
    1057 |    -0.2217513362    0.1582823544 | 
    1058 |    -0.2175170031    0.0470585529 | 
    1059 |    -0.2170888902    0.0413541799 | 
    1060 |    -0.2168399662    0.0383479291 | 
                          ------
    2154 |     0.5859279492    0.0000000000 | 

                       |  Abs_value |  Threshold | Converged
     Delta_Free_energy |   5.61E-01 |   1.00E-06 |        No
     Delta_Energy      |   5.65E-01 |   1.00E-04 |        No
     Delta_Entropy     |   4.31E-03 |   1.00E-04 |        No
     Commutator        |   7.69E-04 |   1.00E-05 |        No
     Delta_Fermi_level |   1.87E-02 |   1.00E-03 |        No

  Line search of the free energy minimum:
  Step_type        Step             Free_energy   Predicted_free_energy
.   Initial    0.000000    -2982.21886929350876
.    Trial1    0.139893    -2982.29420182257854
.    Trial2    0.468425    -2976.87521109216141
. Quadratic    0.077351    -2982.46562173601524    -2982.43643364038508

--------------------------------------------------------------------------------
  Iter                              Commutator    Free_energy(A=E-TS)     DeltaA
#    2                          0.000601214249   -2982.46562173601524  -2.47E-01

Step                       =       0.077351220132
Energy                     =   -2982.439774090814
Entropy (-TS)              =      -0.025847645145
Free energy (A=E-TS)       =   -2982.465621736015
Est. 0K Energy 0.5*(E+A)   =   -2982.452697913415
Residual Non-orthogonality =       0.000000000000
Residual N_electrons       =      -0.000000000056

Spin          Integrated_Ne            Fermi_level     Delta_Fermi_level
   1      2109.999999999744        -0.219516426445              7.53E-03

                           Spin 1          
     Orb      H-eigenvalues     Occupancies
       1 |    -1.9130609955    1.0000000000 | 
                          ------
    1051 |    -0.2302039727    0.9669095526 | 
    1052 |    -0.2287955511    0.9493152539 | 
[...]
 C      321         4.1926606      -0.1926606
 C      322         4.3141342      -0.3141342
 C      323         4.0104813      -0.0104813
 C      324         4.3327662      -0.3327662
 H      325         0.7866528       0.2133472
 H      326         0.8100035       0.1899965
 C      327         3.9997598       0.0002402
 C      328         4.0885596      -0.0885596
 C      329         4.0082526      -0.0082526
 C      330         4.0794005      -0.0794005
 C      331         4.2293291      -0.2293291
 C      332         4.0827336      -0.0827336
 C      333         3.9965334       0.0034666
 C      334         4.3241991      -0.3241991
 H      335         0.8132467       0.1867533
 H      336         0.8101008       0.1898992
 C      337         4.2644371      -0.2644371
 C      338         3.9864277       0.0135723
 C      339         4.0037250      -0.0037250
 C      340         4.2257412      -0.2257412
 C      341         4.3063455      -0.3063455
 C      342         4.0594956      -0.0594956
 C      343         3.9891269       0.0108731
 C      344         4.2362165      -0.2362165
 C      345         4.0026949      -0.0026949
 C      346         3.9973327       0.0026673
 C      347         4.0111002      -0.0111002
 C      348         4.0064960      -0.0064960
 C      349         4.0093124      -0.0093124
 C      350         3.9984805       0.0015195
 C      351         4.0112673      -0.0112673
 C      352         4.0115286      -0.0115286
 C      353         3.9909231       0.0090769
 C      354         4.0092699      -0.0092699
 C      355         4.0085884      -0.0085884
 C      356         4.0038395      -0.0038395
 C      357         3.9966475       0.0033525
 C      358         3.9969454       0.0030546
 C      359         4.0091463      -0.0091463
 C      360         4.0060038      -0.0060038
 C      361         4.0955071      -0.0955071
 C      362         3.9941748       0.0058252
 C      363         3.9999826       0.0000174
 C      364         4.0092222      -0.0092222
 C      365         4.0255585      -0.0255585
 C      366         4.0430844      -0.0430844
 C      367         4.0046562      -0.0046562
 C      368         4.0715693      -0.0715693
 H      369         0.8144240       0.1855760
 H      370         0.8062324       0.1937676
 H      371         0.7982913       0.2017087
 H      372         0.8050644       0.1949356
 C      373         4.0156318      -0.0156318
 C      374         3.9949746       0.0050254
 C      375         4.0047912      -0.0047912
 C      376         4.0063202      -0.0063202
 C      377         4.0907161      -0.0907161
 C      378         3.9967710       0.0032290
 C      379         4.0820327      -0.0820327
 C      380         4.0037426      -0.0037426
 C      381         3.9969510       0.0030490
 C      382         4.0064536      -0.0064536
 C      383         4.0130468      -0.0130468
 C      384         4.0116369      -0.0116369
 C      385         3.9922229       0.0077771
 C      386         4.0130025      -0.0130025
 C      387         4.0058030      -0.0058030
 C      388         4.0470811      -0.0470811
 C      389         4.4184893      -0.4184893
 C      390         3.9901172       0.0098828
 C      391         4.0696514      -0.0696514
 C      392         4.2278348      -0.2278348
 C      393         4.3258942      -0.3258942
 C      394         4.0481997      -0.0481997
 C      395         4.0783421      -0.0783421
 C      396         4.3708577      -0.3708577
 H      397         0.8029070       0.1970930
 H      398         0.7974753       0.2025247
 H      399         0.7948107       0.2051893
 H      400         0.7944634       0.2055366
 H      401         0.7962535       0.2037465
 H      402         0.7848694       0.2151306
 C      403         4.2250813      -0.2250813
 C      404         4.2028320      -0.2028320
 C      405         4.2392643      -0.2392643
 C      406         4.0033259      -0.0033259
 C      407         4.0090174      -0.0090174
 C      408         4.0016972      -0.0016972
 C      409         4.0778647      -0.0778647
 C      410         4.0056006      -0.0056006
 H      411         0.7960777       0.2039223
 H      412         0.8073625       0.1926375
 C      413         4.0553073      -0.0553073
 C      414         4.3267660      -0.3267660
 C      415         4.3778019      -0.3778019
 C      416         4.0674999      -0.0674999
 C      417         4.1990717      -0.1990717
 C      418         4.3157999      -0.3157999
 C      419         4.2386969      -0.2386969
 C      420         4.0944518      -0.0944518
 C      421         4.0096775      -0.0096775
 C      422         4.0872951      -0.0872951
 C      423         4.0745235      -0.0745235
 C      424         4.0097597      -0.0097597
 H      425         0.8017013       0.1982987
 H      426         0.8051614       0.1948386
 C      427         4.0417160      -0.0417160
 C      428         4.3715013      -0.3715013
 C      429         4.3619203      -0.3619203
 C      430         4.0781461      -0.0781461
 C      431         3.9947699       0.0052301
 C      432         3.9986813       0.0013187
 C      433         4.0136138      -0.0136138
 C      434         4.0104816      -0.0104816
 C      435         3.9931909       0.0068091
 C      436         3.9960193       0.0039807
 C      437         4.0094590      -0.0094590
 C      438         4.0078749      -0.0078749
 C      439         4.0590580      -0.0590580
 C      440         4.0285599      -0.0285599
 C      441         4.0551881      -0.0551881
 C      442         4.0131996      -0.0131996
 C      443         4.0389121      -0.0389121
 C      444         4.0600450      -0.0600450
 C      445         4.0778738      -0.0778738
 C      446         4.0152754      -0.0152754
 C      447         4.0029022      -0.0029022
 C      448         3.9930334       0.0069666
 C      449         4.0089877      -0.0089877
 C      450         4.0091703      -0.0091703
 C      451         3.9926828       0.0073172
 C      452         4.0090905      -0.0090905
 C      453         4.0093855      -0.0093855
 C      454         4.0065034      -0.0065034
 C      455         4.0137398      -0.0137398
 C      456         3.9955514       0.0044486
 C      457         4.0054705      -0.0054705
 C      458         4.0066122      -0.0066122
 C      459         3.9982892       0.0017108
 C      460         4.0072555      -0.0072555
 C      461         4.0073105      -0.0073105
 C      462         4.0035846      -0.0035846
 C      463         4.0795446      -0.0795446
 C      464         4.3217377      -0.3217377
 C      465         4.3303387      -0.3303387
 C      466         3.9886217       0.0113783
 C      467         4.1079490      -0.1079490
 C      468         4.3399046      -0.3399046
 C      469         4.3062498      -0.3062498
 C      470         4.0998129      -0.0998129
 H      471         0.8112217       0.1887783
 H      472         0.8164250       0.1835750
 H      473         0.7906032       0.2093968
 H      474         0.8052127       0.1947873
 C      475         4.0156421      -0.0156421
 C      476         3.9978731       0.0021269
 C      477         4.0869007      -0.0869007
 C      478         4.0061696      -0.0061696
 C      479         4.0060706      -0.0060706
 C      480         4.0180242      -0.0180242
 C      481         4.0858001      -0.0858001
 C      482         4.0078743      -0.0078743
 H      483         0.8007656       0.1992344
 H      484         0.8031179       0.1968821
 C      485         4.0383323      -0.0383323
 C      486         4.4960995      -0.4960995
 C      487         4.3239553      -0.3239553
 C      488         4.0859936      -0.0859936
 C      489         4.0972818      -0.0972818
 C      490         4.3832342      -0.3832342
 C      491         4.5216826      -0.5216826
 C      492         3.9917960       0.0082040
 C      493         4.2195688      -0.2195688
 C      494         4.1948379      -0.1948379
 C      495         4.2271670      -0.2271670
 H      496         0.7981469       0.2018531
 C      497         3.9972341       0.0027659
 C      498         4.2000485      -0.2000485
 C      499         4.2678067      -0.2678067
 H      500         0.8087236       0.1912764
 H      501         0.7990255       0.2009745
 C      502         4.1968080      -0.1968080
 C      503         4.2163009      -0.2163009
 C      504         4.2219970      -0.2219970
 H      505         0.7939440       0.2060560
 C      506         4.0412164      -0.0412164
 C      507         4.3348651      -0.3348651
 C      508         4.3014251      -0.3014251
 H      509         0.8040985       0.1959015
 H      510         0.7972813       0.2027187
 C      511         4.0807725      -0.0807725
 C      512         4.1999662      -0.1999662
 C      513         4.3165821      -0.3165821
 H      514         0.8102872       0.1897128
 H      515         0.8097737       0.1902263
 C      516         3.9846619       0.0153381
 C      517         4.3003269      -0.3003269
 C      518         4.2245766      -0.2245766
 H      519         0.8083422       0.1916578
 H      520         0.8111131       0.1888869
 C      521         3.9946717       0.0053283
 C      522         4.2035194      -0.2035194
 C      523         4.2829449      -0.2829449
 H      524         0.8111838       0.1888162
 C      525         4.0455803      -0.0455803
 C      526         4.3924975      -0.3924975
 C      527         4.2299263      -0.2299263
 H      528         0.7993031       0.2006969
 H      529         0.7884481       0.2115519
 H      530         0.8038564       0.1961436
 H      531         0.7917506       0.2082494
 H      532         0.7920847       0.2079153
 C      533         4.3077273      -0.3077273
 C      534         4.1995156      -0.1995156
 H      535         0.7868516       0.2131484
 C      536         4.2321899      -0.2321899
 C      537         4.3777398      -0.3777398
 C      538         4.0319965      -0.0319965
 H      539         0.8092707       0.1907293
 C      540         4.3558485      -0.3558485
 H      541         0.8035009       0.1964991
 C      542         4.2805393      -0.2805393
 C      543         4.2813122      -0.2813122
 H      544         0.7871501       0.2128499
 C      545         4.2377901      -0.2377901
 C      546         4.3845576      -0.3845576
 C      547         4.0545424      -0.0545424
 H      548         0.8134082       0.1865918
 C      549         4.4193459      -0.4193459
 H      550         0.7947632       0.2052368
 H      551         0.8134100       0.1865900
 H      552         0.8105420       0.1894580
 H      553         0.8051140       0.1948860
 H      554         0.8019937       0.1980063
 C      555         4.2707837      -0.2707837
 C      556         3.9793256       0.0206744
 H      557         0.8093508       0.1906492
 C      558         4.2311838      -0.2311838
 C      559         4.2178922      -0.2178922
 C      560         4.0835526      -0.0835526
 H      561         0.8129376       0.1870624
 C      562         4.3210452      -0.3210452
 C      563         4.4052644      -0.4052644
 C      564         4.0540717      -0.0540717
 C      565         4.2576927      -0.2576927
 C      566         4.3601452      -0.3601452
 C      567         4.0523912      -0.0523912
 C      568         4.3194401      -0.3194401
 C      569         4.2912426      -0.2912426
 C      570         4.1961906      -0.1961906
 H      571         0.7845260       0.2154740
 H      572         0.8007929       0.1992071
 H      573         0.7857309       0.2142691
 H      574         0.8042118       0.1957882
 C      575         4.1989618      -0.1989618
 C      576         4.3068479      -0.3068479
 H      577         0.8011831       0.1988169
 H      578         0.7841734       0.2158266
 H      579         0.8026959       0.1973041
 H      580         0.7878626       0.2121374
 H      581         0.8054961       0.1945039
 H      582         0.8037751       0.1962249
 H      583         0.8074741       0.1925259
 H      584         0.8071145       0.1928855
 H      585         0.8158214       0.1841786
 H      586         0.8092888       0.1907112
 H      587         0.8069314       0.1930686
 H      588         0.8044422       0.1955578
 H      589         0.8134569       0.1865431
 H      590         0.8105703       0.1894297
 H      591         0.8031131       0.1968869
 H      592         0.7966999       0.2033001
 Li     593         2.0458011       0.9541989
 Li     594         2.1506767       0.8493233
 Li     595         2.0461331       0.9538669
 Li     596         2.1275194       0.8724806
 Li     597         2.0464773       0.9535227
 Li     598         2.1218240       0.8781760
 Li     599         2.0462351       0.9537649
 Li     600         2.1275988       0.8724012
 Li     601         2.0455784       0.9544216
 Li     602         2.1258505       0.8741495
 Li     603         2.0456180       0.9543820
 Li     604         2.1418772       0.8581228
 Li     605         2.0460503       0.9539497
 Li     606         2.1247779       0.8752221
 Li     607         2.1462007       0.8537993
 Li     608         2.1520363       0.8479637
 Li     609         2.1267104       0.8732896
 Li     610         2.1289179       0.8710821
 Li     611         2.1206453       0.8793547
 Li     612         2.1353396       0.8646604
 Li     613         2.1375309       0.8624691
 Li     614         2.1552951       0.8447049
------------------------------------------------
 Total charge (e):   2110.0000000
================================================
Writing "22/592nano_nao_nbo.47" ... 2: sizes -->         2154        2154
        2154        2154
 done
================================================

------------------------------ TIMING INFORMATION ------------------------------
AVERAGE TIME:    9498.290s on    150 node(s)                                    
TOTAL TIME:      9498.292s on    150 node(s)                                    
================= AVERAGE TIMINGS FROM ALL NODES (CUMULATIVE) ==================
|| TAG                                    #calls    cpu time   %total  Gflops ||
|| work_imbalance                       :     1        0.00s   0.000%  ------ ||
|| linalg_dsyev_lt                      :     3        0.00s   0.000%  ------ ||
|| sparse_set_to_garbage                :   147        0.01s   0.000%  ------ ||
|| paw_sphere_density_on_grid           :     1        0.01s   0.000%  ------ ||
|| paw_tcore_density                    :     1        0.01s   0.000%  ------ ||
|| basis_extract_function_from_box      :   373        0.02s   0.000%  ------ ||
|| paw_dij_hartree                      :   909        0.03s   0.000%  ------ ||
|| ngwfs_initialise_from_radial         :     2        0.04s   0.000%  ------ ||
|| ewald_calculate_energy               :     1        0.13s   0.001%  ------ ||
|| density_init_guess_real              :     1        0.14s   0.001%  ------ ||
|| paw_tcore_hartree_on_grid            :     1        0.37s   0.004%  ------ ||
|| pseudo_make_structure_factor         :     1        0.45s   0.005%  ------ ||
|| kernel_purify                        :     4        0.46s   0.005%  ------ ||
|| paw_dataset_init                     :     3        0.51s   0.005%  ------ ||
|| sparse_init                          :     1        0.95s   0.010%  ------ ||
|| restart_kernel_write                 :    14        1.07s   0.011%  ------ ||
|| paw_species_calc_proj_prec_mat       :     1        1.89s   0.020%  ------ ||
|| dense_normal_eigensolve              :     5        3.76s   0.040%  ------ ||
|| fourier_apply_box_pair               :   559        6.39s   0.067%  2.168k ||
|| sparse_embed_hotelling_invert_embed  :    25        6.62s   0.070%  ------ ||
|| ngwf_gradient_coeffs                 :    13        7.38s   0.078%  ------ ||
|| sw_init                              :     1        7.52s   0.079%  ------ ||
|| basis_copy_function_to_box           : 13555       13.45s   0.142%  ------ ||
|| augmentation_screen_dij              :   680       14.63s   0.154%  ------ ||
|| paw_dij_xc                           :   909       20.24s   0.213%  ------ ||
|| projectors_init_fftbox_recip         :    79       24.64s   0.259%  ------ ||
|| hartree_on_grid                      :   675       30.38s   0.320%  ------ ||
|| integrals_kinetic                    :    25       35.23s   0.371%  ------ ||
|| projectors_func_ovlp_box             :    26       36.83s   0.388%  ------ ||
|| function_ops_brappd_ketppd           :    52       40.96s   0.431%  ------ ||
|| eigenstates_pdos                     :     1       42.75s   0.450%  ------ ||
|| augmentation_density_on_grid         :   675       49.07s   0.517%  ------ ||
|| hamiltonian_energy_components        :     3       49.72s   0.523%  ------ ||
|| aug_nonlocal_mat                     :   896       52.79s   0.556%  ------ ||
|| sparse_trace                         :  8490       67.61s   0.712%  ------ ||
|| fourier_apply_cell_forward           :  3371       69.30s   0.730% 169.315 ||
|| fourier_apply_cell_backward          :  3372       70.60s   0.743% 166.230 ||
|| basis_dot_function_with_box          : 3.040M      81.92s   0.862%  ------ ||
|| eigenstates_calculate                :     1       84.96s   0.894%  ------ ||
|| xc_energy_potential                  :   674      124.50s   1.311%  ------ ||
|| restart_ngwfs_tightbox_output        :    12      206.16s   2.171%  ------ ||
|| sparse_product                       :  7511      208.46s   2.195%  ------ ||
|| basis_add_function_to_box            : 8.595M     224.46s   2.363%  ------ ||
|| dense_eigensolve                     :   646      253.39s   2.668%  ------ ||
|| projectors_gradient_batch            :    26      293.97s   3.095%  ------ ||
|| cell_grid_extract_box_real           :  7773      318.60s   3.354%  ------ ||
|| integrals_locpot_mat_els_batch       :   460      385.70s   4.061%  ------ ||
|| cell_grid_deposit_box_real           : 25024      392.84s   4.136%  ------ ||
|| projectors_grad_precond_batch        :    26      433.13s   4.560%  ------ ||
|| edft_diag_ngwf_ham                   :   645      694.07s   7.307%  ------ ||
|| density_fftbox_deposit_to_cell       : 11475      753.49s   7.933%  ------ ||
|| density_batch_row_sums               :  1350      762.85s   8.031%  ------ ||
|| ngwf_gradient_build_batch            :    26      804.09s   8.466%  ------ ||
|| npa_main                             :     1      845.01s   8.896%  ------ ||
|| potential_apply_to_ngwf_batch        :   460      866.50s   9.123%  ------ ||
|| ngwf_gradient_batch                  :    26      872.90s   9.190%  ------ ||
|| fourier_apply_box                    : 42698      967.47s  10.186%  3.558k ||
|| density_fftbox_interpolate_multiply  : 11475     1062.88s  11.190%  ------ ||
|| ngwf_gradient_lnv                    :    13     1148.07s  12.087%  ------ ||
|| edft_apply_smearing_operator         :   645     1236.13s  13.014%  ------ ||
|| integrals_locpot_dbl_grid            :   230     1258.15s  13.246%  ------ ||
|| properties_calculate                 :     1     1597.95s  16.824%  ------ ||
|| density_batch_interp_deposit         :  1350     2348.20s  24.722%  ------ ||
|| density_on_dbl_grid                  :   675     3246.72s  34.182%  ------ ||
|| hamiltonian_lhxc_calculate           :   670     3595.28s  37.852%  ------ ||
|| edft_calculate                       :    13     6194.20s  65.214%  ------ ||
|| ngwf_cg_optimise                     :     1     7884.86s  83.013%  ------ ||
|| total_time                           :     1     9498.29s 100.000%  ------ ||
================================================================================
Overhead of generating timer report: 
- 0 ms averaging over threads,
- 23 ms ensuring consistency across MPI ranks,
- 0 ms printing in order.

Job completed: 29-06-2020 15:07 (+0100)

