 +---------------------------------------------------------------+
 |                                                               |
 |        ####### #     # ####### ####### ####### ######         |
 |        #     # ##    # #          #    #       #     #        |
 |        #     # # #   # #          #    #       #     #        |
 |        #     # #  #  # #####      #    #####   ######         |
 |        #     # #   # # #          #    #       #              |
 |        #     # #    ## #          #    #       #              |
 |        ####### #     # #######    #    ####### #              |
 |                                                               |
 |        Linear-Scaling Ab Initio Total Energy Program          |
 |                                                               |
 |          Release for academic collaborators of ODG            |
 |                                             Version 6.1.3.6   |
 |                                                               |
 +---------------------------------------------------------------+
 |                                                               |
 |  Authors:                                                     |
 |  Jacek Dziedzic, Peter D. Haynes, Nicholas D. M. Hine,        |
 |  Arash A. Mostofi, Mike C. Payne and Chris-Kriton Skylaris    |
 |                                                               |
 |  Contributors:                                                |
 |  J. Aarons, L. Andrinopoulos, P. W. Avraam, R. A. Bell,       |
 |  A. Bhandari, G. A. Bramley, R. J. Charlton, S. J. Clark,     |
 |  R. J. Clements, G. C. Constantinescu, F. Corsetti,           |
 |  N. Corsini, O. Dieguez, S. M. M. Dubois, K. K. B. Duff,      |
 |  J. M. Escartin, A. Greco, H. Helal, Q. O. Hill, L. P. Lee,   |
 |  J.-H. Li, E. B. Linscott, G. Moynihan, D. D. O`Regan,        |
 |  O. K. Okan, M. J. S. Phipps, C. J. Pickard,                  |
 |  J. C. A. Prentice, M. I. J. Probert, L. E. Ratcliff,         |
 |  M. Robinson, A. Ruiz Serrano, J. S. Spencer, E. W. Tait,     |
 |  G. Teobaldi, D. Turban, V. Vitale, K. A. Wilkinson,          |
 |  C. Weber, J. C. Womack, N. Yeung and T. J. Zuehlsdorff       |
 |                                                               |
 |                                   Copyright (c) 2004-2021     |
 |                                                               |
 |  Please cite:                                                 |
 |  "The ONETEP linear-scaling density functional theory program"|
 |   J. Chem. Phys. 152(17) 174111 (2020)                        |
 |                                                               |
 |          in all publications arising from your use of ONETEP. |
 |                                                               |
 +---------------------------------------------------------------+
 |                                                               |
 |   ONETEP is based on developments described in the following  |
 |   publications:                                               |
 |                                                               |
 |  "Nonorthogonal generalized Wannier function pseudopotential  |
 |   plane-wave method".                                         |
 |   C.-K. Skylaris, A. A. Mostofi, P. D. Haynes, O. Dieguez,    |
 |   M. C. Payne.                                                |
 |   Phys. Rev. B 66 035119 (2002).                              |
 |                                                               |
 |  "Preconditioned iterative minimization for linear-scaling    |
 |   electronic structure calculations".                         |
 |   A. A. Mostofi, P. D. Haynes, C.-K. Skylaris, M. C. Payne.   |
 |   J. Chem. Phys. 119(17), pp.8842-8848 (2003).                |
 |                                                               |
 |  "Total-energy calculations on a real space grid with         |
 |   localized functions and a plane-wave basis".                |
 |   A. A. Mostofi, C.-K. Skylaris, P. D. Haynes, M. C. Payne.   |
 |   Comput. Phys. Commun. 147, pp.788-802 (2002).               |
 |                                                               |
 |  "Accurate kinetic energy evaluation in electronic structure  |
 |   calculations with localized functions on real space grids"  |
 |   C.-K. Skylaris, A. A. Mostofi, P. D. Haynes, C. J. Pickard, |
 |   M. C. Payne.                                                |
 |   Comput. Phys. Commun. 140, pp.315-322 (2001).               |
 |                                                               |
 |  "Accurate ionic forces and geometry optimization in linear-  |
 |   scaling density-functional theory with local orbitals"      |
 |   N. D. M. Hine, M. Robinson, P. D. Haynes, C.-K. Skylaris,   |
 |   M. C. Payne, and A. A. Mostofi.                             |
 |   Phys. Rev. B 83 195102 (2011).                              |
 |                                                               |
 +---------------------------------------------------------------+

Job started: 15-09-2021 21:57 (+0100)
 
Reading parameters from file "14/592nano.dat" ...... done

If your calculation crashes here, before "Checking processes and threads..."
is displayed, then your stack size is insufficient.
If so, use "ulimit -s unlimited" at runtime.
You can disable this check with "check_stack_size F".

Checking processes and threads...
   Determining the default number of threads...
      No default threads set at compilation time: defaulting to 1.
      OpenMP library call suggests 4 threads.
      Hybrid MPI-OpenMP compilation detected.
      Number of MPI processes > 1.
      OMP_NUM_THREADS environment variable present and
      its value matches the one obtained from the OpenMP library call.
      Using this value as default.
      Default threads: 4
      Default applies to threads_max and threads_num_fftboxes.
      Settings in the input file override this default.
   ... done

   Running with 160 MPI processes.
   There are 10 MPI processes running on the same node as the root process.
   Each MPI process is using: 
               1 threads for simulation cell FFTs.
               1 threads for parallel FFT box operations.
               4 threads for loops over batched FFT box operations.
               4 threads in other parallel regions.
... done

Basic input checks...
Resetting ngwf_cg_rotate to TRUE for EDFT calculations
... done

Reading geometry and species blocks from file "14/592nano.dat" ...    
  Number of PPD points along a3 set to 1.  This is 
  the default value, it may have been provided also in the input file.
... done
 Writing xyz coordinates to file "14/592nano.xyz" ... done


--------------------------------------------------------------------------------
---------------------------------- INPUT FILE ----------------------------------
--------------------------------------------------------------------------------

task : singlepoint                                                              
geom_lbfgs T                                                                    
do_properties : true                                                            
dx_format T                                                                     
edft T                                                                          
edft_spin_fix 3                                                                 
output_detail VERBOSE                                                           
timings_level 3                                                                 
write_xyz T                                                                     
edft_update_scheme: pulay_mix                                                   
edft_ham_diis_size: 10                                                          
edft_trial_step: 0.382                                                          
xc_functional OPTPBE                                                            
cutoff_energy 830 eV                                                            
paw T                                                                           
geom_precond_type EXP                                                           
geom_disp_tol 0.06 bohr                                                         
geom_energy_tol 6E-6 hartree                                                    
geom_force_tol 0.012 "ha/bohr"                                                  
geom_max_iter 25                                                                
EDFT_MAXIT 30                                                                   
pdos_max_l = 2                                                                  
dos_smear  0.1 eV                                                               
popn_calculate T                                                                
PDOS_PSEUDOATOMIC T                                                             
PDOS_REDUCE_SWS F                                                               
PDOS_CONSTRUCT_BASIS F                                                          
PDOS_LOWDIN T                                                                   
PDOS_ORTH_ATOM_BLOCKS F                                                         
PDOS_LCAO_OPTIMIZE F                                                            
pdos_optados_output T                                                           
homo_plot 0                                                                     
lumo_plot 0                                                                     
homo_dens_plot -1                                                               
lumo_dens_plot -1                                                               
%BLOCK SPECIES                                                                  
C C 6 4 9.0                                                                     
H H 1 1 9.0                                                                     
Li Li 3 5 9.0                                                                   
%ENDBLOCK SPECIES                                                               
%BLOCK SPECIES_POT                                                              
C "~/pp/paw/c_pbe_abinit.paw"                                                   
H "~/pp/paw/h_pbe_abinit.paw"                                                   
Li "~/pp/paw/li_pbe_abinit.paw"                                                 
%ENDBLOCK SPECIES_POT                                                           
%BLOCK SPECIES_ATOMIC_SET                                                       
C "SOLVE conf=2s2 2p2"                                                          
H "SOLVE conf=1s1"                                                              
Li "SOLVE conf=1s2 2s1 2p0"                                                     
%ENDBLOCK SPECIES_ATOMIC_SET                                                    
%BLOCK SPECIES_LDOS_GROUPS                                                      
C                                                                               
H                                                                               
Li                                                                              
%ENDBLOCK SPECIES_LDOS_GROUPS                                                   
%BLOCK LATTICE_CART                                                             
94.486315650000      0.000000000000       0.000000000000                        
0.000000000000       94.486315650000      0.000000000000                        
0.000000000000       0.000000000000       94.486315650000                       
%ENDBLOCK LATTICE_CART                                                          
%BLOCK POSITIONS_ABS                                                            
C 42.971521 41.219778 31.724559                                                 
C 38.905162 43.492122 31.720218                                                 
C 41.652166 38.873115 31.511642                                                 
C 45.658767 41.259636 31.768301                                                 
C 37.590194 41.144595 31.490928                                                 
C 37.529613 45.798601 31.777694                                                 
C 54.972194 48.389149 31.649343                                                 
C 54.916537 53.050410 31.620783                                                 
C 53.664490 46.042390 31.716500                                                 
C 38.717610 57.464885 32.002543                                                 
C 42.725676 59.854465 32.007416                                                 
C 37.402492 55.118102 31.979356                                                 
C 53.546087 55.360806 31.697703                                                 
C 45.413305 59.900014 31.989321                                                 
C 47.034170 38.945272 31.601911                                                 
C 41.596414 43.528953 31.832613                                                 
C 34.833147 45.765075 31.597039                                                 
C 51.037384 41.333536 31.663454                                                 
C 53.605584 50.700987 31.759774                                                 
C 34.767267 50.421756 31.765801                                                 
C 41.410035 57.502672 32.070697                                                 
C 38.965102 38.839387 31.384630                                                 
C 55.033134 43.725518 31.544242                                                 
C 49.665190 43.649816 31.838621                                                 
C 37.464602 50.455344 31.939638                                                 
C 49.481631 57.633373 31.923276                                                 
C 34.705232 55.084934 31.811957                                                 
C 57.659510 48.427779 31.413578                                                 
C 50.801827 59.990267 31.757008                                                 
C 57.604499 53.086023 31.371236                                                 
C 37.339725 59.788095 31.888738                                                 
C 54.865133 57.719238 31.521952                                                 
C 50.859933 55.322128 31.893681                                                 
C 46.794609 57.586599 32.032953                                                 
C 41.345824 62.175475 31.894283                                                 
C 46.733601 62.255481 31.839504                                                 
C 46.977876 43.605690 31.892053                                                 
C 50.977613 45.997428 31.868192                                                 
C 38.842466 48.145293 31.938118                                                 
C 38.779072 52.801105 32.033459                                                 
C 49.719556 38.989105 31.557076                                                 
C 33.459603 48.075175 31.592438                                                 
C 43.032971 36.564824 31.369477                                                 
C 53.722578 41.379698 31.529677                                                 
C 34.899362 41.117478 31.311374                                                 
C 33.394487 52.738720 31.700988                                                 
C 45.708278 36.603791 31.424787                                                 
C 33.529651 43.415844 31.367048                                                 
C 58.967774 50.774763 31.268403                                                 
C 53.487408 60.030059 31.558690                                                 
C 49.418156 62.301977 31.724861                                                 
C 38.657475 62.135171 31.840538                                                 
C 50.920521 50.659140 31.933020                                                 
C 42.789158 55.188852 32.117681                                                 
C 42.913387 45.874188 31.974417                                                 
C 57.719140 43.774117 31.334442                                                 
C 59.021981 46.111050 31.267348                                                 
C 33.336618 57.408263 31.693759                                                 
C 34.647133 59.748372 31.741312                                                 
C 58.916468 55.441803 31.196760                                                 
C 49.546253 52.969390 31.997595                                                 
C 45.479284 55.233129 32.106356                                                 
C 57.553292 57.746682 31.275678                                                 
C 49.607980 48.310439 31.977650                                                 
C 41.473207 52.839602 32.109638                                                 
C 42.668916 64.523319 31.765306                                                 
C 41.536753 48.183910 32.029762                                                 
C 45.604483 45.917242 31.998134                                                 
C 45.346887 64.567625 31.736468                                                 
C 37.641660 36.477364 31.129193                                                 
C 46.859193 52.923604 32.090150                                                 
C 42.853807 50.530465 32.100528                                                 
C 46.920314 48.265181 32.046549                                                 
C 41.688301 34.207655 31.148336                                                 
C 33.593430 38.743704 31.056566                                                 
C 51.106965 36.657022 31.337149                                                 
C 55.102017 39.042223 31.313271                                                 
C 30.743948 48.046619 31.360089                                                 
C 47.110830 34.278262 31.244813                                                 
C 30.678871 52.701383 31.464121                                                 
C 30.813927 43.402876 31.151524                                                 
C 45.544295 50.574908 32.102321                                                 
C 61.673634 50.807235 31.017649                                                 
C 39.052368 34.206821 31.035639                                                 
C 34.970485 36.494541 30.980629                                                 
C 37.271801 64.471907 31.695238                                                 
C 59.086686 41.428723 31.143578                                                 
C 54.812349 62.409303 31.342248                                                 
C 50.752509 64.672102 31.505867                                                 
C 61.731513 46.166947 31.034970                                                 
C 30.621687 57.356606 31.470088                                                 
C 61.627854 55.454390 30.952974                                                 
C 33.275202 62.097085 31.595626                                                 
C 41.266105 66.852421 31.627567                                                 
C 58.863373 60.133366 31.087116                                                 
C 46.693483 66.929999 31.546071                                                 
C 49.741711 34.348040 31.221763                                                 
C 29.491071 45.679332 31.174644                                                 
C 62.989699 48.484327 30.929550                                                 
C 53.763057 36.744165 31.248946                                                 
C 62.937453 53.163502 30.878430                                                 
C 57.778573 39.144807 31.159961                                                 
C 29.422179 50.357700 31.322489                                                 
C 43.137074 31.905580 31.046018                                                 
C 34.598737 64.384839 31.598977                                                 
C 38.628557 66.781169 31.613715                                                 
C 29.361324 55.042350 31.376999                                                 
C 30.875139 38.779201 30.878466                                                 
C 45.716527 31.941473 31.096987                                                 
C 29.553607 40.998595 30.926017                                                 
C 57.492964 62.385897 31.142414                                                 
C 53.407616 64.673950 31.340274                                                 
C 49.322279 66.946612 31.452986                                                 
H 38.034689 32.394465 30.857945                                                 
H 33.954755 34.682886 30.788579                                                 
C 63.059714 43.797402 30.898551                                                 
C 61.801408 41.541594 30.946918                                                 
C 62.898832 57.863553 30.814796                                                 
C 29.296088 59.736813 31.354616                                                 
C 30.558382 61.993657 31.418727                                                 
C 61.582697 60.091046 30.877159                                                 
C 42.654806 69.191236 31.490444                                                 
C 45.240231 69.231001 31.447809                                                 
H 65.015293 53.197374 30.709359                                                 
H 65.066224 48.519166 30.760668                                                 
H 50.801431 32.556318 31.106678                                                 
H 42.102635 30.094438 30.925258                                                 
H 29.879212 36.953374 30.698904                                                 
H 27.410411 45.653776 31.034925                                                 
H 37.563769 68.571606 31.507284                                                 
H 33.536950 66.177239 31.487869                                                 
H 58.845633 37.358649 31.029504                                                 
H 27.280801 55.014126 31.230589                                                 
H 46.795301 30.156069 31.027372                                                 
H 54.824653 34.955466 31.112931                                                 
H 27.469172 40.994758 30.795880                                                 
H 27.342400 50.330745 31.173302                                                 
H 58.507506 64.208981 31.019746                                                 
H 50.347713 68.758220 31.324372                                                 
H 65.141741 43.850601 30.745065                                                 
H 62.855525 39.743042 30.839659                                                 
H 54.430824 66.488856 31.203582                                                 
H 64.983234 57.874226 30.660227                                                 
H 29.507336 63.794088 31.322977                                                 
H 27.215401 59.689643 31.218424                                                 
H 41.578114 70.973673 31.407971                                                 
H 62.572698 61.927934 30.786297                                                 
H 46.273876 71.034681 31.342303                                                 
C 44.327175 38.813586 37.515787                                                 
C 36.181790 43.386257 37.484682                                                 
C 40.250944 41.102224 37.533921                                                 
C 41.647863 38.797870 37.406764                                                 
C 49.724101 38.883446 37.470422                                                 
C 37.553770 41.078298 37.418620                                                 
C 48.339412 41.196366 37.657464                                                 
C 53.724422 41.268577 37.478436                                                 
C 45.642182 41.167287 37.663773                                                 
C 52.344424 43.587867 37.645571                                                 
C 36.108558 48.075936 37.658320                                                 
C 37.484571 45.748588 37.660432                                                 
C 45.716600 36.492076 37.383661                                                 
C 36.019343 52.732004 37.794195                                                 
C 33.406804 48.028682 37.497499                                                 
C 53.654264 45.952728 37.644640                                                 
C 52.418139 38.917445 37.376089                                                 
C 33.321288 52.691786 37.611449                                                 
C 56.352679 45.999899 37.460101                                                 
C 33.487654 43.357601 37.257868                                                 
C 49.650612 43.549878 37.721645                                                 
C 37.338580 55.078591 37.881452                                                 
C 48.398057 36.525057 37.320882                                                 
C 41.560316 43.453069 37.700621                                                 
C 37.415740 50.423424 37.795006                                                 
C 35.969372 57.412883 37.823925                                                 
C 56.418842 41.315793 37.268704                                                 
C 56.282490 50.670240 37.440171                                                 
C 53.590465 50.642893 37.643437                                                 
C 53.525696 55.337531 37.552658                                                 
C 32.009482 50.338924 37.442183                                                 
C 45.364720 59.831551 37.901187                                                 
C 41.381447 57.380355 37.914191                                                 
C 57.722509 43.673424 37.233433                                                 
C 32.098738 45.659827 37.287836                                                 
C 52.118462 57.640501 37.619418                                                 
C 44.258035 43.479621 37.740719                                                 
C 48.057952 59.876954 37.834546                                                 
C 40.177132 45.770939 37.755986                                                 
C 39.974779 59.748537 37.876617                                                 
C 49.436479 57.561124 37.805345                                                 
C 52.281098 48.273606 37.734746                                                 
C 57.662685 48.339325 37.363615                                                 
C 40.029567 55.085226 37.942495                                                 
C 56.214617 55.349644 37.310476                                                 
C 52.244990 52.985127 37.663712                                                 
C 44.059460 57.474312 37.954495                                                 
C 40.326101 36.434080 37.059858                                                 
C 31.932587 55.021800 37.477453                                                 
C 43.978884 62.153437 37.796999                                                 
C 36.235954 38.701084 37.143309                                                 
C 33.241134 57.365122 37.601319                                                 
C 37.272842 59.731714 37.816825                                                 
C 57.551944 53.040995 37.212656                                                 
C 41.303711 62.100360 37.752824                                                 
C 48.267620 45.868570 37.794324                                                 
C 40.112360 50.441229 37.869923                                                 
C 48.138202 55.196886 37.864890                                                 
C 44.390966 34.140074 37.207197                                                 
C 53.819069 36.581160 37.060071                                                 
C 53.445501 59.972762 37.460647                                                 
C 49.584365 48.222635 37.806692                                                 
C 49.385844 62.227531 37.670622                                                 
C 41.428345 52.783193 37.927127                                                 
C 45.448455 55.160590 37.930939                                                 
C 49.544046 52.897736 37.814141                                                 
C 45.571342 45.835120 37.809540                                                 
C 41.490435 48.123322 37.839463                                                 
C 32.199210 40.971714 36.944999                                                 
C 37.651894 36.439435 36.979767                                                 
C 49.786490 34.203368 36.984029                                                 
C 41.740336 34.153469 37.041308                                                 
C 57.539730 57.708094 37.132832                                                 
C 57.796186 38.968752 37.058909                                                 
C 33.586358 38.708764 36.947207                                                 
C 45.322241 64.509775 37.646712                                                 
C 44.125177 52.814915 37.923419                                                 
C 48.213821 50.543722 37.854605                                                 
C 29.284782 50.307027 37.078104                                                 
C 44.188835 48.149478 37.856365                                                 
C 60.376635 48.360903 37.082921                                                 
C 52.065486 62.280303 37.457013                                                 
C 45.511090 50.502559 37.889006                                                 
C 60.439380 43.733882 36.983861                                                 
C 29.391651 45.634406 37.013377                                                 
C 56.153874 59.998594 37.216430                                                 
C 56.483010 36.668660 36.997301                                                 
C 29.229702 54.989973 37.127397                                                 
C 48.006047 64.554129 37.587360                                                 
C 60.274631 53.027948 36.851959                                                 
C 52.457997 34.273495 36.821692                                                 
C 35.884490 62.090147 37.693790                                                 
C 31.872451 59.714889 37.409621                                                 
C 39.892911 64.454165 37.550595                                                 
C 45.813564 31.847374 37.103205                                                 
C 27.943413 52.634451 37.021864                                                 
C 61.697810 46.066555 36.955682                                                 
C 28.034525 47.939753 36.902075                                                 
C 61.625353 50.717903 36.876575                                                 
C 48.404789 31.873718 36.974074                                                 
C 29.489531 40.999966 36.794683                                                 
C 33.208417 62.027172 37.548490                                                 
C 60.508726 39.088582 36.888665                                                 
C 37.228487 64.385689 37.652633                                                 
C 60.239457 57.702946 36.883316                                                 
H 36.650530 34.668343 36.483358                                                 
H 40.755694 32.344133 36.651162                                                 
C 61.773602 41.372193 36.818412                                                 
C 43.913165 66.841009 37.525452                                                 
H 32.579230 36.900813 36.703400                                                 
C 61.556892 55.382384 36.755953                                                 
C 28.144929 43.234687 36.865073                                                 
C 41.245829 66.775479 37.541794                                                 
H 57.550266 34.891793 36.762325                                                 
C 27.901081 57.344093 37.117281                                                 
C 29.171356 59.622910 37.251004                                                 
H 53.507512 32.507496 36.464726                                                 
C 53.388296 64.658243 37.100106                                                 
H 44.782016 30.037525 37.046786                                                 
H 25.892374 52.620367 36.646577                                                 
C 57.458570 62.375306 36.985729                                                 
C 49.352140 66.915681 37.358166                                                 
H 63.769976 46.100693 36.740146                                                 
H 28.492552 39.183281 36.595563                                                 
H 25.985859 47.904350 36.529002                                                 
H 63.658278 50.720484 36.357862                                                 
H 49.473754 30.091622 36.806170                                                 
H 61.573010 37.302152 36.763875                                                 
H 32.158103 63.814638 37.311886                                                 
H 36.171761 66.176194 37.471104                                                 
H 63.848156 41.428366 36.656774                                                 
H 63.593257 55.463635 36.292312                                                 
H 26.067491 43.198851 36.714153                                                 
H 25.826448 57.312505 36.897332                                                 
C 61.486228 60.085702 36.739218                                                 
H 40.182872 68.563066 37.345817                                                 
C 45.296530 69.170256 37.389636                                                 
H 28.124011 61.422367 37.133112                                                 
C 51.999445 66.918134 37.172569                                                 
C 56.067652 64.649021 36.951584                                                 
C 60.155614 62.342617 36.804139                                                 
C 47.914284 69.208711 37.311811                                                 
H 63.553533 60.102819 36.532371                                                 
H 44.207274 70.947236 37.349905                                                 
H 53.007807 68.726196 36.941232                                                 
H 57.079602 66.445473 36.676327                                                 
H 61.153729 64.166655 36.637463                                                 
H 48.933125 71.021160 37.172196                                                 
H 29.138056 37.583102 44.375985                                                 
H 41.130410 30.206049 43.955169                                                 
H 33.122263 35.113457 44.199093                                                 
H 37.124748 32.670191 44.406991                                                 
H 45.832330 30.115963 43.715784                                                 
H 26.913848 41.717226 44.622204                                                 
C 42.218067 31.984724 43.841315                                                 
C 30.223357 39.356939 44.269316                                                 
H 62.219523 39.044534 44.480289                                                 
C 34.207838 36.885941 44.018231                                                 
C 38.191181 34.432807 44.058508                                                 
C 44.814073 31.933695 43.722068                                                 
H 49.890804 32.360651 44.169522                                                 
H 64.693430 43.026296 44.041633                                                 
C 28.986376 41.658337 44.426460                                                 
H 65.152927 57.168607 44.086258                                                 
H 27.054786 46.419081 44.837229                                                 
H 27.392275 60.437967 45.038381                                                 
H 54.000673 34.626073 44.519807                                                 
H 58.096201 36.821436 44.423429                                                 
H 29.862288 64.484534 45.142473                                                 
H 27.178952 51.106156 44.970035                                                 
H 65.076537 52.406419 43.727485                                                 
H 42.206861 71.135668 45.210625                                                 
H 62.874676 61.266421 44.488626                                                 
H 27.294187 55.822157 45.159920                                                 
H 64.851242 47.672403 43.743998                                                 
C 32.923974 39.206696 44.056956                                                 
C 40.866522 34.332786 43.909193                                                 
H 46.890684 71.013130 45.208484                                                 
C 36.865477 36.767795 43.918616                                                 
H 38.059621 68.914668 45.231663                                                 
C 61.245225 40.875194 44.278210                                                 
C 62.609196 43.083584 44.034823                                                 
H 33.952375 66.690489 45.205403                                                 
C 48.915148 34.192855 43.904613                                                 
C 63.064756 57.196338 44.076901                                                 
C 29.116079 46.368388 44.494550                                                 
H 58.875453 63.715322 44.689160                                                 
C 29.468755 60.413040 44.893518                                                 
C 46.266367 34.211305 43.719852                                                 
H 50.906577 68.558539 44.975850                                                 
H 54.842341 66.129683 44.959872                                                 
C 30.347011 43.994462 44.334531                                                 
C 30.832328 62.652244 44.945078                                                 
C 53.019865 36.434127 44.141455                                                 
C 61.801121 59.492328 44.285611                                                 
C 57.110890 38.648150 44.216682                                                 
C 43.207362 69.316586 45.007874                                                 
C 29.187797 51.051089 44.386788                                                 
C 62.982096 52.451594 43.761001                                                 
C 29.352257 55.721252 44.796057                                                 
C 62.771429 47.754192 43.742276                                                 
C 45.810554 69.239160 45.028717                                                 
C 50.348993 36.459639 44.036100                                                 
C 58.527711 40.891506 44.215231                                                 
C 39.051089 67.097386 44.982951                                                 
C 54.461964 38.681731 44.039768                                                 
C 30.467818 48.659712 44.444057                                                 
C 61.383671 45.482901 43.860878                                                 
C 34.945888 64.880142 44.938363                                                 
C 42.287160 36.643630 43.681861                                                 
C 61.716934 54.872068 43.906451                                                 
C 34.329353 41.541826 43.910897                                                 
C 30.714467 58.023405 44.711117                                                 
C 45.359798 50.615559 43.589606                                                 
C 30.574407 53.361650 44.527376                                                 
C 38.296897 39.093860 43.710701                                                 
C 61.571918 50.116624 43.713670                                                 
C 46.770244 52.916377 43.625346                                                 
C 57.794218 61.949314 44.355086                                                 
C 42.663229 50.680052 43.612851                                                 
C 46.645129 48.247505 43.555135                                                 
C 44.963381 36.586301 43.641886                                                 
C 33.541714 62.639919 44.823864                                                 
C 49.816925 66.799831 44.735187                                                 
C 41.720259 67.053245 44.874889                                                 
C 33.054832 43.909636 44.050544                                                 
C 53.781089 64.370401 44.588700                                                 
C 59.107725 59.613012 44.306695                                                 
C 45.473679 55.281472 43.699889                                                 
C 49.462732 52.856521 43.612408                                                 
C 41.254571 48.378395 43.594046                                                 
C 45.233864 45.947710 43.534434                                                 
C 37.605058 64.843355 44.845976                                                 
C 41.372809 53.046774 43.690324                                                 
C 49.341087 48.191375 43.558542                                                 
C 47.165737 66.890935 44.851275                                                 
C 40.984490 39.011401 43.630872                                                 
C 37.029580 41.461091 43.700491                                                 
C 42.539071 46.005714 43.546270                                                 
C 42.779491 55.347477 43.743134                                                 
C 50.752905 50.488544 43.582019                                                 
C 49.060046 38.849736 43.754371                                                 
C 55.117703 62.062790 44.402698                                                 
C 33.178701 48.590161 44.072748                                                 
C 53.174507 41.077340 43.816604                                                 
C 57.265908 43.295929 43.933414                                                 
C 51.109458 64.483891 44.498709                                                 
C 58.682367 45.572435 43.814482                                                 
C 46.383526 38.897738 43.615201                                                 
C 46.510917 43.569940 43.541286                                                 
C 38.553114 48.448461 43.669013                                                 
C 34.454453 46.230900 43.906677                                                 
C 33.287239 53.281126 44.156653                                                 
C 50.618739 45.816086 43.571792                                                 
C 38.673387 53.123357 43.776236                                                 
C 50.878488 55.158951 43.680757                                                 
C 41.125561 43.694320 43.550254                                                 
C 50.482010 41.140076 43.696405                                                 
C 46.882271 57.583162 43.791531                                                 
C 33.416343 57.949859 44.430320                                                 
C 58.989398 54.942410 43.849855                                                 
C 42.396570 41.317578 43.524765                                                 
C 38.431918 43.772449 43.620749                                                 
C 49.205742 43.512924 43.582102                                                 
C 45.093470 41.268172 43.541975                                                 
C 58.843394 50.235671 43.669813                                                 
C 37.263729 50.822720 43.769620                                                 
C 34.819391 60.241616 44.501572                                                 
C 37.148991 46.147255 43.697780                                                 
C 34.565654 50.905261 43.945854                                                 
C 54.572773 43.365063 43.767090                                                 
C 53.449037 50.418598 43.594907                                                 
C 49.583817 57.521586 43.786240                                                 
C 43.028923 64.677497 44.569328                                                 
C 41.490222 57.717431 43.902925                                                 
C 57.695525 57.290384 44.022800                                                 
C 34.692847 55.565839 44.132995                                                 
C 53.303804 45.749122 43.624581                                                 
C 57.419511 47.961363 43.671627                                                 
C 38.911882 62.447813 44.487217                                                 
C 37.388640 55.491818 43.940971                                                 
C 57.559360 52.608664 43.683293                                                 
C 54.711627 48.057270 43.622058                                                 
C 45.719675 64.594637 44.546344                                                 
C 53.574615 55.084077 43.722560                                                 
C 54.870108 52.708319 43.650587                                                 
C 38.792311 57.793960 44.013524                                                 
C 45.592385 59.942110 43.994552                                                 
C 37.514776 60.157864 44.294130                                                 
C 53.687777 59.734822 44.080168                                                 
C 42.897891 60.009541 44.045870                                                 
C 49.694527 62.173909 44.219627                                                 
C 41.607083 62.374790 44.349794                                                 
C 50.994453 59.817726 43.993244                                                 
C 54.982547 57.385218 43.914011                                                 
C 46.999697 62.224727 44.242517                                                 
H 43.910845 30.097645 49.717867                                                 
H 27.914629 39.764059 50.386450                                                 
H 48.597150 30.011530 49.860759                                                 
H 60.874506 36.791438 50.318081                                                 
H 63.306772 40.817807 50.299503                                                 
H 25.654931 43.865692 50.619328                                                 
H 28.384112 61.937564 50.958328                                                 
H 25.940168 57.930242 50.934792                                                 
H 35.901534 34.937493 49.826288                                                 
H 39.915476 32.518026 49.717365                                                 
H 31.899051 37.359561 50.049394                                                 
H 63.418685 50.095459 51.101471                                                 
H 36.574470 66.436368 50.866574                                                 
H 63.709364 59.511789 50.626538                                                 
H 44.735436 70.932242 51.132365                                                 
H 63.396980 45.474504 50.360197                                                 
H 32.484347 64.184134 50.863915                                                 
H 52.685583 32.288337 50.062179                                                 
H 56.779455 34.551332 50.223852                                                 
H 63.537861 54.865226 51.105646                                                 
H 61.431370 63.641418 50.569221                                                 
H 40.661155 68.679501 50.958798                                                 
H 49.451311 70.848055 51.104319                                                 
H 25.850315 53.246889 50.784632                                                 
H 25.754299 48.544554 50.677903                                                 
C 44.999199 31.878680 49.728809                                                 
C 47.575286 31.831543 49.802889                                                 
C 28.978034 41.559322 50.311645                                                 
C 59.881873 38.623477 50.204752                                                 
C 27.734201 43.817945 50.434676                                                 
C 61.222499 40.832943 50.194381                                                 
C 28.016798 57.894017 50.776985                                                 
C 29.361291 60.104036 50.798052                                                 
H 57.429814 66.037200 50.676486                                                 
H 53.435244 68.436630 50.867280                                                 
C 40.990420 34.304533 49.681798                                                 
C 36.982183 36.719390 49.761579                                                 
C 32.981894 39.139969 49.973080                                                 
C 61.626437 59.569757 50.494759                                                 
C 45.770588 69.126031 50.941921                                                 
C 60.375974 61.845460 50.468763                                                 
C 51.675261 34.109163 49.944255                                                 
C 48.349253 69.082697 50.920776                                                 
C 55.770473 36.370992 50.084744                                                 
C 61.320722 45.510653 50.178481                                                 
C 61.399647 50.169036 50.541099                                                 
C 33.470562 62.355773 50.677518                                                 
C 37.568688 64.614494 50.658286                                                 
C 27.830494 48.511888 50.477453                                                 
C 27.926326 53.202448 50.582862                                                 
C 61.498427 54.871768 50.611364                                                 
C 41.667477 66.864594 50.751388                                                 
C 43.618064 34.227151 49.667779                                                 
C 49.044701 34.125470 49.806469                                                 
C 31.689052 41.431663 50.077338                                                 
C 57.168780 38.612985 50.059899                                                 
C 29.074084 46.187588 50.335514                                                 
C 59.976826 43.239799 50.057928                                                 
C 29.264676 55.479489 50.560238                                                 
C 39.636614 36.625286 49.663215                                                 
C 32.077128 60.119382 50.609779                                                 
C 35.657373 39.028551 49.793949                                                 
C 53.107328 36.373248 49.936104                                                 
C 56.362111 64.256710 50.481411                                                 
C 52.358008 66.662645 50.660169                                                 
C 29.165111 50.832225 50.398008                                                 
C 45.329013 50.526898 49.376851                                                 
C 60.273799 57.221567 50.377767                                                 
C 60.082430 47.867500 50.160680                                                 
C 44.298902 66.844542 50.705394                                                 
C 36.150326 62.365241 50.521991                                                 
C 60.158311 52.540646 50.454789                                                 
C 40.225841 64.609046 50.552293                                                 
C 57.669879 61.961370 50.344427                                                 
C 49.726140 66.740819 50.659920                                                 
C 44.031459 52.883759 49.461660                                                 
C 48.018439 50.474370 49.379890                                                 
C 43.930771 48.224777 49.358599                                                 
C 53.698147 64.350888 50.434195                                                 
C 45.427545 55.183939 49.544399                                                 
C 49.417308 52.775076 49.451081                                                 
C 45.043989 36.548036 49.593352                                                 
C 41.338891 52.934888 49.533578                                                 
C 49.315708 48.115848 49.371345                                                 
C 47.715982 36.498725 49.664746                                                 
C 33.073668 43.773023 49.944061                                                 
C 41.239138 48.275671 49.419847                                                 
C 45.226973 45.868725 49.341246                                                 
C 31.782323 46.115876 50.075553                                                 
C 55.880691 40.995491 49.867625                                                 
C 57.272161 43.282057 49.856407                                                 
C 31.976394 55.445354 50.316840                                                 
C 33.368393 57.736752 50.333985                                                 
C 48.119510 55.130533 49.539068                                                 
C 39.941117 50.632356 49.518231                                                 
C 47.918126 45.817078 49.362119                                                 
C 51.801015 38.749740 49.747819                                                 
C 41.046983 38.954071 49.541259                                                 
C 37.057302 41.361634 49.657144                                                 
C 57.583164 57.284749 50.084247                                                 
C 31.871839 50.781876 50.132998                                                 
C 45.629127 64.482180 50.407177                                                 
C 57.385838 47.936905 49.822081                                                 
C 56.289750 59.633059 50.106087                                                 
C 37.453882 59.991327 50.216198                                                 
C 48.301463 64.434478 50.389556                                                 
C 57.474529 52.608397 49.970620                                                 
C 41.539617 62.239212 50.240211                                                 
C 40.044117 55.291310 49.707071                                                 
C 44.128629 57.540501 49.720479                                                 
C 52.111268 52.719919 49.522977                                                 
C 52.006627 48.062109 49.447322                                                 
C 39.844034 45.971828 49.461565                                                 
C 49.116832 38.799594 49.614858                                                 
C 43.829925 43.566043 49.374971                                                 
C 43.734233 38.901848 49.502011                                                 
C 35.759135 43.713727 49.719282                                                 
C 53.194241 41.044354 49.702120                                                 
C 33.166283 48.426897 49.960903                                                 
C 33.263972 53.086069 50.078758                                                 
C 39.745188 41.306906 49.521196                                                 
C 41.440343 57.590474 49.802221                                                 
C 55.991796 45.646159 49.696533                                                 
C 53.406989 50.361800 49.527026                                                 
C 41.142304 43.617476 49.425620                                                 
C 36.057087 57.696223 50.119594                                                 
C 52.298188 62.032626 50.163179                                                 
C 37.251604 50.681824 49.671336                                                 
C 56.094096 50.304534 49.742611                                                 
C 49.214190 43.459761 49.435153                                                 
C 40.143069 59.947852 50.065734                                                 
C 49.516520 57.431754 49.692182                                                 
C 56.196771 54.966665 49.879219                                                 
C 44.226039 62.191520 50.163769                                                 
C 45.131894 41.209118 49.424654                                                 
C 37.152912 46.025141 49.609801                                                 
C 37.352187 55.337381 49.863800                                                 
C 53.297485 45.703400 49.529282                                                 
C 47.816854 41.158688 49.473802                                                 
C 35.857039 48.376837 49.727146                                                 
C 51.900434 43.407818 49.536329                                                 
C 35.956945 53.037736 49.849509                                                 
C 45.526945 59.837084 49.895286                                                 
C 53.597380 59.686760 49.976830                                                 
C 49.609917 62.085235 50.121781                                                 
C 53.504462 55.021791 49.670891                                                 
C 48.214834 59.785557 49.881165                                                 
C 52.205532 57.378309 49.750164                                                 
Li 59.604379 41.566773 40.425099                                                
Li 31.915514 60.650496 41.340874                                                
Li 31.210381 41.743233 40.764222                                                
Li 46.692389 67.244057 40.894374                                                
Li 59.362963 60.082910 40.372536                                                
Li 54.716841 63.971033 40.807107                                                
Li 39.883794 65.252969 41.377581                                                
Li 39.066259 34.292240 40.169391                                                
Li 28.690052 53.859466 40.997728                                                
Li 29.082470 48.343834 40.794330                                                
Li 51.525130 34.951547 40.624912                                                
Li 62.588636 53.135682 40.010880                                                
Li 62.993766 52.484372 47.603021                                                
Li 62.240040 47.242440 40.243560                                                
%ENDBLOCK POSITIONS_ABS                                                         

--------------------------------------------------------------------------------
-------------------------------- END INPUT FILE --------------------------------
--------------------------------------------------------------------------------


 
<<<<<<<<<<<<<<<<<<<<<<<<<<<<<<<<< Full system >>>>>>>>>>>>>>>>>>>>>>>>>>>>>>>>>>
<<<<<<<<<<<<<<<<<<<<<<<<<<< PAW Dataset information >>>>>>>>>>>>>>>>>>>>>>>>>>>
File: ~/pp/paw/c_pbe_abinit.paw; rc = 1.25 bohr; shape type =  3; rshape = 1.25 bohr;
  Atomic number:  6;  ionic charge:  4.000000
    Partial Wave 1: l = 0
    Partial Wave 2: l = 0
    Partial Wave 3: l = 1
    Partial Wave 4: l = 1
  Core charge supplied for Nonlinear Core Corrections
File: ~/pp/paw/h_pbe_abinit.paw; rc = 0.90 bohr; shape type =  3; rshape = 0.90 bohr;
  Atomic number:  1;  ionic charge:  1.000000
    Partial Wave 1: l = 0
    Partial Wave 2: l = 0
File: ~/pp/paw/li_pbe_abinit.paw; rc = 1.42 bohr; shape type =  3; rshape = 1.42 bohr;
  Atomic number:  3;  ionic charge:  3.000000
    Partial Wave 1: l = 0
    Partial Wave 2: l = 0
    Partial Wave 3: l = 0
    Partial Wave 4: l = 1
    Partial Wave 5: l = 1
<<<<<<<<<<<<<<<<<<<<<<<<<<<<<<<<<<<<<<< >>>>>>>>>>>>>>>>>>>>>>>>>>>>>>>>>>>>>>>

-------------------------- Atom counting information ---------------------------
Symbol    Natoms    Nngwfs    Nprojs
  C        484      1936      3872
  H        108       108       216
  Li        14        70       126
.......   ......    ......    ......
Totals:    606      2114      4214
--------------------------------------------------------------------------------

=============================== PSINC grid sizes ===============================
                      Simulation cell:  189 x 189 x 189
                              FFT-box:  117 x 117 x 117
                                  PPD:    7 x   7 x   1
Grid space d1=  0.499927596032a0 (KE cutoff=  30.39413Eh = 827.06648eV)
Grid space d2=  0.499927596032a0 (KE cutoff=  30.39413Eh = 827.06648eV)
Grid space d3=  0.499927596032a0 (KE cutoff=  30.39413Eh = 827.06648eV)
================================================================================
  
WARNING in cell_grid_distribute:
Average of less than one 23-slab per proc, so workload cannot be
equally balanced between procs.

********************* Fourier parallelisation information **********************
       Coarse grid (whole simulation cell) dimensions:    189   189   189
          Real-space ('12') slabs/proc (min max mean):      1     2     1
         Recip-space ('23') slabs/proc (min max mean):      0     1     0
********************************************************************************

********************* Fourier parallelisation information **********************
       Double grid (whole simulation cell) dimensions:    378   378   378
          Real-space ('12') slabs/proc (min max mean):      2     3     2
         Recip-space ('23') slabs/proc (min max mean):      1     2     1
********************************************************************************

Atom SCF Calculation for C  : Z (AE atom) =   6 : Z (PS atom) =   4
Config String: 2s2 2p2
Orbitals (num,occ):  2     2.00 2.00
Orbitals   (num,l):  2        0    1
Real-space Grid (nr,dr,rmax): 1377    0.0065406977    9.0000000000
Spherical Bessel Basis (nsws,lmax,cutoff):   37    2  183.0099912382
Confining potential (l,width,scale):  0    3.0000000000  100.0000000000
Confining potential (l,width,scale):  1    3.0000000000  100.0000000000
  1         -5.4795186097   -1.3252230651    4.5135247139   -1.6370402178
  2         -5.4480873667   -1.4027986130    4.4305957006   -1.6109824140
  3         -5.4553175168   -1.4212842775    4.4102621601   -1.6059044058
  4         -5.4627851864   -1.4247099971    4.4065125496   -1.6052912254
  5         -5.4662317525   -1.4266823431    4.4043718731   -1.6049357348
  6         -5.4679531179   -1.4277361345    4.4032352159   -1.6047498153
  7         -5.4688370531   -1.4282876632    4.4026436340   -1.6046546171
  8         -5.4692962224   -1.4285743132    4.4023378281   -1.6046060967
  9         -5.4695360875   -1.4287229388    4.4021801230   -1.6045813828
 10         -5.4696617783   -1.4287999625    4.4020988354   -1.6045687883
 11         -5.4697277645   -1.4288398966    4.4020569195   -1.6045623641
 12         -5.4697624500   -1.4288606199    4.4020352864   -1.6045590836
 13         -5.4697806994   -1.4288713865    4.4020241086   -1.6045574064
 14         -5.4697903086   -1.4288769875    4.4020183254   -1.6045565478
 15         -5.4697953717   -1.4288799052    4.4020153292   -1.6045561077
 16         -5.4697980412   -1.4288814272    4.4020137746   -1.6045558818
 17         -5.4697994496   -1.4288822223    4.4020129668   -1.6045557657
 18         -5.4698001930   -1.4288826382    4.4020125465   -1.6045557059
 19         -5.4698005858   -1.4288828561    4.4020123274   -1.6045556751
 20         -5.4698007933   -1.4288829704    4.4020122131   -1.6045556592
 21         -5.4698009031   -1.4288830304    4.4020121533   -1.6045556509
 22         -5.4698009612   -1.4288830620    4.4020121220   -1.6045556467
Atom SCF converged after  22 iterations to a total energy of     -5.46980096

Atom SCF Calculation for H  : Z (AE atom) =   1 : Z (PS atom) =   1
Config String: 1s1
Orbitals (num,occ):  1     1.00
Orbitals   (num,l):  1        0
Real-space Grid (nr,dr,rmax): 1377    0.0065406977    9.0000000000
Spherical Bessel Basis (nsws,lmax,cutoff):   37    1  183.0099912382
Confining potential (l,width,scale):  0    3.0000000000  100.0000000000
  1         -0.3687944832   -0.2607687933    0.2820952946   -0.2613406499
  2         -0.4328656062   -0.2590521405    0.2895573663   -0.2701762133
  3         -0.4633856573   -0.2560091938    0.2934204754   -0.2757429988
  4         -0.4750266404   -0.2549676794    0.2946557510   -0.2779015032
  5         -0.4793045155   -0.2546870695    0.2949704774   -0.2786577123
  6         -0.4808919118   -0.2546234645    0.2950332622   -0.2789201171
  7         -0.4814942533   -0.2546130669    0.2950388368   -0.2790132353
  8         -0.4817280090   -0.2546133926    0.2950352123   -0.2790473458
  9         -0.4818204053   -0.2546148712    0.2950319888   -0.2790602287
 10         -0.4818574273   -0.2546158825    0.2950301416   -0.2790652181
 11         -0.4818724050   -0.2546164247    0.2950292178   -0.2790671871
 12         -0.4818785049   -0.2546166894    0.2950287833   -0.2790679748
 13         -0.4818810009   -0.2546168128    0.2950285855   -0.2790682928
 14         -0.4818820255   -0.2546168689    0.2950284970   -0.2790684221
 15         -0.4818824471   -0.2546168940    0.2950284580   -0.2790684748
 16         -0.4818826210   -0.2546169051    0.2950284408   -0.2790684964
 17         -0.4818826928   -0.2546169100    0.2950284333   -0.2790685053
Atom SCF converged after  17 iterations to a total energy of     -0.48188269

Atom SCF Calculation for Li : Z (AE atom) =   3 : Z (PS atom) =   3
Config String: 1s2 2s1 2p0
Orbitals (num,occ):  3     2.00 1.00 0.00
Orbitals   (num,l):  3        0    0    1
Real-space Grid (nr,dr,rmax): 1377    0.0065406977    9.0000000000
Spherical Bessel Basis (nsws,lmax,cutoff):   37    2  183.0099912382
Confining potential (l,width,scale):  0    3.0000000000  100.0000000000
Confining potential (l,width,scale):  1    3.0000000000  100.0000000000
  1         -6.1314629607   -4.7499359229    2.5388576516   -1.0480231927
  2         -7.0450508208   -4.1702030791    2.9795337774   -1.2623862962
  3         -7.3518474013   -3.9564527259    3.2037296734   -1.3880788964
  4         -7.4613386962   -3.8947565558    3.2914990517   -1.4402825036
  5         -7.5001516047   -3.8789668192    3.3221434609   -1.4602864917
  6         -7.5136113510   -3.8755528126    3.3322769691   -1.4678164580
  7         -7.5181182589   -3.8751724459    3.3354399675   -1.4706394447
  8         -7.5195538340   -3.8753832694    3.3363346353   -1.4716958846
  9         -7.5199777516   -3.8756112412    3.3365363545   -1.4720903919
 10         -7.5200869011   -3.8757624244    3.3365501247   -1.4722372325
 11         -7.5201065703   -3.8758489541    3.3365264569   -1.4722916218
 12         -7.5201049812   -3.8758952022    3.3365040630   -1.4723116262
 13         -7.5201006323   -3.8759190019    3.3364892955   -1.4723189110
 14         -7.5200980758   -3.8759285770    3.3364824548   -1.4723210036
 15         -7.5200963811   -3.8759342877    3.3364781194   -1.4723220111
 16         -7.5200953120   -3.8759376792    3.3364754203   -1.4723224913
 17         -7.5200946593   -3.8759396866    3.3364737619   -1.4723227171
 18         -7.5200942701   -3.8759408718    3.3364727530   -1.4723228213
 19         -7.5200940419   -3.8759415700    3.3364721439   -1.4723228682
 20         -7.5200939099   -3.8759419808    3.3364717784   -1.4723228886
 21         -7.5200938343   -3.8759422222    3.3364715600   -1.4723228969
Atom SCF converged after  21 iterations to a total energy of     -7.52009383

Determining parallel strategy ...
... using space-filling curve
... NGWF load balancing: max     16;  min     12;  average     13
... Projector load balancing: max     32;  min     24;  average     26
... done
Calculating Ewald energy ...
              Ewald: real-space energy =   36498.330052
        Ewald: reciprocal-space energy =   34716.934538
         Ewald: (sum_charge)**2 Energy =    2721.064417
         Ewald: (sum_charge**2) Energy =     245.623861
                          Ewald Energy =   68248.576311
Basis initialisation ...... NGWF spheres initialised
... Projector spheres initialised
... NGWF tight boxes initialised
... Projector tight boxes initialised
... Tight-boxes gathered
... NGWF basis size (local,global):     267307  42675886
... PAW projector initialisation
... done

============================= Charge Augmentation ==============================
                           Aug box size:   13 x  13 x  13
================================================================================

========================== Sparse matrix information ===========================
                        Overlap matrix filling:  39.04%
                        Density kernel filling: 100.00%
              NGWF-Proj overlap matrix filling:  11.01%
                    Aug Overlap matrix filling:  43.38%
                    Hamiltonian matrix filling:  43.38%
                  NGWF diagonal matrix filling:   0.18%
                             KS matrix filling: 100.00% 
                           KSKS matrix filling: 100.00% 
================================================================================

Sparse matrix initialisation ... done
NGWF initialisation ...... done
============ Calculation of NGWF S^-1 using Hotelling algorithm ================ 
         Iteration  |  Frobenius norm and Maximum abs value    (of I-S*S_n^-1)   
               1       0.45610294E+02     0.99566150E+00
               2       0.45263500E+02     0.99135884E+00
               3       0.44626606E+02     0.98285643E+00
               4       0.43540067E+02     0.96623459E+00
               5       0.41890121E+02     0.93437340E+00
               6       0.39709187E+02     0.87516596E+00
               7       0.37083786E+02     0.78555588E+00
               8       0.34075721E+02     0.76282580E+00
               9       0.30960350E+02     0.74237756E+00
              10       0.27966379E+02     0.72793619E+00
              11       0.24699564E+02     0.70387905E+00
              12       0.20490881E+02     0.65994385E+00
              13       0.15000656E+02     0.59073654E+00
              14       0.87962533E+01     0.48940234E+00
              15       0.36454706E+01     0.34170153E+00
              16       0.10421098E+01     0.17163592E+00
              17       0.29532355E+00     0.57125483E-01
              18       0.52046758E-01     0.12356349E-01
              19       0.22381677E-02     0.58085809E-03
              20       0.48876236E-05     0.12840316E-05
              21       0.23879064E-10     0.62753136E-11
              22       0.38124657E-13     0.17763568E-14
================================================================================
Calculating core density ...
================================= Core Density =================================
               Core den box size:   21 x  21 x  21
================================================================================
 ... done
Up spin density kernel initialisation ...... done
Down spin density kernel initialisation ...... done

Writing density kernel to file "14/592nano.dkn" ... done

>>> Optimising kernel for current NGWFs:

--------------------------- Ensemble-DFT optimisation --------------------------
Running ScaLAPACK on  160 processor(s).

--------------------------------------------------------------------------------
  Iter                              Commutator    Free_energy(A=E-TS)     DeltaA
#    0                          0.000925904396   -2927.74670167208387  -2.93E+03

Step                       =       0.381966011250
Energy (E)                 =   -2927.729670914437
Entropy (-TS)              =      -0.017030757647
Free energy (A=E-TS)       =   -2927.746701672084
Est. 0K Energy 0.5*(E+A)   =   -2927.738186293260
Residual Non-orthogonality =       0.000000000000
Residual N_electrons       =       0.000000000000

Spin          Integrated_Ne            Fermi_level     Delta_Fermi_level
   1      1043.000000000000        -0.246479770661             -2.46E-01
   2      1043.000000000000        -0.246479770661             -2.46E-01

                           Spin 1           |                 Spin 2           |
     Orb |    H-eigenvalues     Occupancies |    H-eigenvalues     Occupancies |
       1 |    -1.8912591503    1.0000000000 |    -1.8912591503    1.0000000000 | 
                          ------                             ------
    1039 |    -0.2597250167    0.9849693353 |    -0.2597250167    0.9849693353 | 
    1040 |    -0.2580002533    0.9743663357 |    -0.2580002533    0.9743663357 | 
    1041 |    -0.2557082729    0.9485405609 |    -0.2557082729    0.9485405609 | 
    1042 |    -0.2529451306    0.8850960155 |    -0.2529451306    0.8850960155 | 
    1043 |    -0.2510418750    0.8085473426 |    -0.2510418750    0.8085473426 | 
                 - Gap at zero temperature - |     - Gap at zero temperature -
                  Finite temp. Fermi level   |      Finite temp. Fermi level  
    1044 |    -0.2425040650    0.2217618349 |    -0.2425040650    0.2217618349 | 
    1045 |    -0.2388275569    0.0819322797 |    -0.2388275569    0.0819322797 | 
    1046 |    -0.2355744543    0.0309594943 |    -0.2355744543    0.0309594943 | 
    1047 |    -0.2352510210    0.0280379212 |    -0.2352510210    0.0280379212 | 
    1048 |    -0.2348898930    0.0250919990 |    -0.2348898930    0.0250919990 | 
                          ------                             ------
    2114 |     0.5643233370    0.0000000000 |     0.5643233370    0.0000000000 | 

                            |  Abs_value |  Threshold | Converged
     Delta_Free_energy/atom |   4.83E+00 |   1.00E-06 |        No
     Delta_Energy/atom      |   4.83E+00 |   1.00E-04 |        No
     Delta_Entropy/atom     |   2.81E-05 |   1.00E-04 |       Yes
     Commutator             |   9.26E-04 |   1.00E-05 |        No
     Delta_Fermi_level      |   2.46E-01 |   1.00E-03 |        No

  Line search of the free energy minimum:
  Step_type        Step             Free_energy   Predicted_free_energy
.   Initial    0.000000    -2927.74670167208387

Performing  Pulay mixing of Hamiltonian with coefficients:
                        Spin 1               Spin 2
                1.000000000000       1.000000000000
Lambda-->      15.481661290271      15.481661289670     ... done

.    Trial1    0.381966    -2927.79516399551039

Performing  Pulay mixing of Hamiltonian with coefficients:
                        Spin 1               Spin 2
                1.000000000000       1.000000000000
Lambda-->      15.481661290271      15.481661289670     ... done

.    Trial2    0.618034    -2925.88026739084307

Performing  Pulay mixing of Hamiltonian with coefficients:
                        Spin 1               Spin 2
                1.000000000000       1.000000000000
Lambda-->      15.481661290271      15.481661289670     ... done

. Quadratic    0.195742    -2928.18506283176885    -2928.25744672551946

--------------------------------------------------------------------------------
  Iter                              Commutator    Free_energy(A=E-TS)     DeltaA
#    1                          0.000605865301   -2928.18506283176885  -4.38E-01

Step                       =       0.195741979252
Energy (E)                 =   -2928.166824212781
Entropy (-TS)              =      -0.018238618809
Free energy (A=E-TS)       =   -2928.185062831769
Est. 0K Energy 0.5*(E+A)   =   -2928.175943522275
Residual Non-orthogonality =       0.000000000000
Residual N_electrons       =      -0.000000000179

Spin          Integrated_Ne            Fermi_level     Delta_Fermi_level
   1      1042.999999999315        -0.231478564395              1.50E-02
   2      1042.999999999910        -0.231478564411              1.50E-02

                           Spin 1           |                 Spin 2           |
     Orb |    H-eigenvalues     Occupancies |    H-eigenvalues     Occupancies |
       1 |    -1.9258889522    1.0000000000 |    -1.9258889518    1.0000000000 | 
                          ------                             ------
    1039 |    -0.2460095818    0.9899345751 |    -0.2460095817    0.9899345746 | 
    1040 |    -0.2430245250    0.9745665152 |    -0.2430245249    0.9745665138 | 
    1041 |    -0.2393473417    0.9230667557 |    -0.2393473416    0.9230667517 | 
    1042 |    -0.2374246782    0.8673391641 |    -0.2374246781    0.8673391576 | 
    1043 |    -0.2353193146    0.7707963063 |    -0.2353193152    0.7707963399 | 
                 - Gap at zero temperature - |     - Gap at zero temperature -
                  Finite temp. Fermi level   |      Finite temp. Fermi level  
    1044 |    -0.2284593791    0.2782049109 |    -0.2284593789    0.2782048995 | 
    1045 |    -0.2236355132    0.0775121293 |    -0.2236355130    0.0775121252 | 
    1046 |    -0.2227341076    0.0594526843 |    -0.2227341074    0.0594526811 | 
    1047 |    -0.2189654907    0.0188665803 |    -0.2189654905    0.0188665792 | 
    1048 |    -0.2185642018    0.0166585412 |    -0.2185642016    0.0166585403 | 
                          ------                             ------
    2114 |     0.5839677563    0.0000000000 |     0.5839677563    0.0000000000 | 

                            |  Abs_value |  Threshold | Converged
     Delta_Free_energy/atom |   7.23E-04 |   1.00E-06 |        No
     Delta_Energy/atom      |   7.21E-04 |   1.00E-04 |        No
[...]
 Li  601 -- Li  602       -0.05      0.00      5.53331
 H   321 -- Li  597       -0.02     -0.00      5.53850
 C   234 -- Li  598       -0.07     -0.00      5.54421
 C   409 -- Li  604       -0.05     -0.00      5.56386
 C   390 -- Li  603       -0.06      0.00      5.57369
 C   240 -- Li  594       -0.05      0.00      5.57912
 H   272 -- Li  595       -0.02      0.00      5.59622
 C   401 -- Li  601       -0.04     -0.00      5.60780
 H   328 -- Li  599       -0.01     -0.00      5.62046
 C   330 -- Li  606       -0.04     -0.00      5.63968
 H   335 -- Li  597       -0.01      0.00      5.66263
=============================================================


============== Orbital energy and occupancy information for spin 1 =============

      Total number of orbitals:    2114
        Occupancy sum (kernel):    1042.999999994
   Occupancy sum (eigenvalues):    1042.999999994
                 HOMO-LUMO gap:       0.003869295 Eh
                 Mid-gap level:      -0.097053415 Eh

                        Orbital | Energy (Eh) | Occupancy
                            1    -1.862487046   1.0000000
                        .......   ...........   .........
                         1035    -0.140078060   0.9999769
                         1036    -0.139248177   0.9999760
                         1037    -0.121319226   0.9975245
                         1038    -0.119629629   0.9962310
                         1039    -0.115760728   0.9864192
                         1040    -0.113178635   0.9708793
                         1041    -0.111063337   0.9445096
                         1042    -0.108317558   0.8843583
                         1043    -0.104821167   0.7021741
                         1044    -0.098988062   0.2727116
                        ....... -- gap at 0K -- .........
                         1045    -0.095118767   0.0987614
                         1046    -0.093286606   0.0558936
                         1047    -0.091913808   0.0364732
                         1048    -0.089458346   0.0176321
                         1049    -0.087634887   0.0094048
                         1050    -0.086413813   0.0069806
                         1051    -0.085689539   0.0055558
                         1052    -0.085485492   0.0050826
                         1053    -0.084945074   0.0041537
                         1054    -0.083273527   0.0024365
                        .......   ...........   .........
                         2114     0.770051974   0.0000000

================================================================================

============== Orbital energy and occupancy information for spin 2 =============

      Total number of orbitals:    2114
        Occupancy sum (kernel):    1043.000000007
   Occupancy sum (eigenvalues):    1043.000000007
                 HOMO-LUMO gap:       0.005833105 Eh
                 Mid-gap level:      -0.101904615 Eh

                        Orbital | Energy (Eh) | Occupancy
                            1    -1.862487046   1.0000000
                        .......   ...........   .........
                         1034    -0.141685425   0.9999827
                         1035    -0.140078060   0.9999769
                         1036    -0.139248177   0.9999760
                         1037    -0.121319226   0.9975245
                         1038    -0.119629629   0.9962310
                         1039    -0.115760728   0.9864192
                         1040    -0.113178635   0.9708793
                         1041    -0.111063337   0.9445096
                         1042    -0.108317558   0.8843583
                         1043    -0.104821167   0.7021741
                        ....... -- gap at 0K -- .........
                         1044    -0.098988062   0.2727116
                         1045    -0.095118767   0.0987615
                         1046    -0.093286606   0.0558936
                         1047    -0.091913808   0.0364732
                         1048    -0.089458346   0.0176321
                         1049    -0.087634887   0.0094048
                         1050    -0.086413813   0.0069806
                         1051    -0.085689539   0.0055558
                         1052    -0.085485492   0.0050826
                         1053    -0.084945074   0.0041537
                        .......   ...........   .........
                         2114     0.770051973   0.0000000

================================================================================

===================== Writing canonical molecular orbitals =====================
    Spin 1
| Orbital  Energy (eV)  Norm     |
| HOMO     -2.69360223  1.000000 | Writing "14/592nano_HOMO_UP.cube" ... done
Writing "14/592nano_HOMO_UP.dx" ... done
| LUMO     -2.58831336  1.000000 | Writing "14/592nano_LUMO_UP.cube" ... done
Writing "14/592nano_LUMO_UP.dx" ... done
================================================================================

===================== Writing canonical molecular orbitals =====================
    Spin 2
| Orbital  Energy (eV)  Norm     |
| HOMO     -2.85232909  1.000000 | Writing "14/592nano_HOMO_DN.cube" ... done
Writing "14/592nano_HOMO_DN.dx" ... done
| LUMO     -2.69360223  1.000000 | Writing "14/592nano_LUMO_DN.cube" ... done
Writing "14/592nano_LUMO_DN.dx" ... done
================================================================================

================== Local Density of States (LDOS) calculation ==================
Writing "14/592nano_UP_LDOS.txt" ...  done
================================================================================

================== Local Density of States (LDOS) calculation ==================
Writing "14/592nano_DN_LDOS.txt" ...  done
================================================================================
 
=============== Density of States (DOS) calculation for UP spin ================
Writing "14/592nano_UP_DOS.txt" ...  done
================================================================================
 
============== Density of States (DOS) calculation for DOWN spin ===============
Writing "14/592nano_DN_DOS.txt" ...  done
================================================================================
 
Writing bands to file "14/592nano.val_bands" ... done
 
================ Projected Density of States (pDOS) calculation ================
 
Constructing AM resolved functions  ...... done
Writing NGWF plot files in formats: CUBE DX ...  done
 
Performing overlap integrals ...  done
 
Computing pDOS weights ...  done
 
All bands spilling parameter =   3.43 %
Occupancy-weighted spilling parameter =   0.89 %
 
 => Outputting data for OptaDOS <=
 
Writing pDOS weights to file "14/592nano.val_pdos_bin" ... done
 
Writing band gradients to file "14/592nano.val_dome_bin" ... done
 
Writing Castep output cell file to "14/592nano-out.cell" ... done
 
 => Computing Gaussian smeared pDOS for UP spin<= 
Writing "14/592nano_UP_PDOS.txt" ...  done
 
 => Computing Gaussian smeared pDOS for DOWN spin<= 
Writing "14/592nano_DN_PDOS.txt" ...  done
 
 => Computing Occupancy-weighted Gaussian smeared pDOS for UP spin<= 
Writing "14/592nano_occ_UP_PDOS.txt" ...  done
  => Band centres for UP spin channel: 
 S band centre of group 1:  -15.566402 eV
 P band centre of group 1:   -7.850043 eV
  Band centres for UP spin channel done. <= 
  => Integrated number of electrons in each AM band for UP spin channel: 
 S num electrons of group 1:  280.823186
 P num electrons of group 1:  752.850880
  Integrated number of electrons for UP spin channel done. <= 
 
 => Computing Occupancy-weighted Gaussian smeared pDOS for DOWN spin<= 
Writing "14/592nano_occ_DN_PDOS.txt" ...  done
  => Band centres for DOWN spin channel: 
 S band centre of group 1:  -15.566402 eV
 P band centre of group 1:   -7.850043 eV
  Band centres for DOWN spin channel done. <=
  => Integrated number of electrons in each AM band for DOWN spin channel: 
 S num electrons of group 1:  280.823186
 P num electrons of group 1:  752.850880
  Integrated number of electrons for DOWN spin channel done. <=
================================================================================

------------------------------ TIMING INFORMATION ------------------------------
AVERAGE TIME:    6912.303s on    160 proc(s)                                    
TOTAL TIME:      6912.304s on    160 proc(s)                                    
================= AVERAGE TIMINGS FROM ALL PROCS (CUMULATIVE) ==================
|| TAG                                    #calls    cpu time   %total  Gflops ||
|| work_imbalance                       :     1        0.00s   0.000%  ------ ||
|| paw_tcore_density                    :     1        0.01s   0.000%  ------ ||
|| paw_dij_hartree                      :   232        0.01s   0.000%  ------ ||
|| sparse_set_to_garbage                :   255        0.01s   0.000%  ------ ||
|| paw_sphere_density_on_grid           :     1        0.01s   0.000%  ------ ||
|| basis_extract_function_from_box      :   369        0.02s   0.000%  ------ ||
|| ngwfs_initialise_from_radial         :     2        0.04s   0.001%  ------ ||
|| ewald_calculate_energy               :     1        0.11s   0.002%  ------ ||
|| density_init_guess_real              :     1        0.27s   0.004%  ------ ||
|| paw_dataset_init                     :     3        0.35s   0.005%  ------ ||
|| paw_tcore_hartree_on_grid            :     1        0.39s   0.006%  ------ ||
|| pseudo_make_structure_factor         :     1        0.47s   0.007%  ------ ||
|| sparse_init                          :     1        0.92s   0.013%  ------ ||
|| dense_normal_eigensolve              :     1        0.96s   0.014%  ------ ||
|| restart_kernel_write                 :    15        1.45s   0.021%  ------ ||
|| paw_species_calc_proj_prec_mat       :     1        2.31s   0.033%  ------ ||
|| augmentation_screen_dij              :   165        3.43s   0.050%  ------ ||
|| sparse_embed_hotelling_invert_embed  :    29        5.46s   0.079%  ------ ||
|| sw_init                              :     1        6.98s   0.101%  ------ ||
|| ngwf_gradient_coeffs                 :    14        7.93s   0.115%  ------ ||
|| basis_copy_function_to_box           :  6566        8.24s   0.119%  ------ ||
|| hartree_on_grid                      :   160        8.41s   0.122%  ------ ||
|| paw_dij_xc                           :   232        9.64s   0.139%  ------ ||
|| fourier_apply_box_pair               :   941       10.41s   0.151%  2.389k ||
|| projectors_init_fftbox_recip         :    59       24.05s   0.348%  ------ ||
|| aug_nonlocal_mat                     :   218       26.26s   0.380%  ------ ||
|| sparse_trace                         :  5452       26.70s   0.386%  ------ ||
|| augmentation_density_on_grid         :   160       27.61s   0.399%  ------ ||
|| integrals_kinetic                    :    29       35.43s   0.513%  ------ ||
|| function_ops_brappd_ketppd           :    60       39.71s   0.575%  ------ ||
|| projectors_func_ovlp_box             :    30       44.15s   0.639%  ------ ||
|| basis_dot_function_with_box          : 1.771M      49.89s   0.722%  ------ ||
|| hamiltonian_energy_components        :     3       74.05s   1.071%  ------ ||
|| dense_eigensolve                     :   252       82.04s   1.187%  ------ ||
|| eigenstates_pdos                     :     1       84.06s   1.216%  ------ ||
|| fourier_apply_cell_forward           :  5884      108.02s   1.563% 189.595 ||
|| fourier_apply_cell_backward          :  6521      123.37s   1.785% 183.979 ||
|| sparse_product                       :  6985      150.30s   2.174%  ------ ||
|| integrals_locpot_mat_els_batch       :   131      151.49s   2.192%  ------ ||
|| basis_add_function_to_box            : 4.711M     159.93s   2.314%  ------ ||
|| cell_grid_deposit_box_real           : 11609      166.45s   2.408%  ------ ||
|| eigenstates_calculate                :     1      175.35s   2.537%  ------ ||
|| restart_ngwfs_tightbox_output        :    13      180.03s   2.604%  ------ ||
|| edft_diag_ngwf_ham                   :   250      285.76s   4.134%  ------ ||
|| density_batch_row_sums               :   160      288.72s   4.177%  ------ ||
|| xc_energy_potential                  :   159      300.51s   4.347%  ------ ||
|| density_fftbox_deposit_to_cell       :  5120      321.36s   4.649%  ------ ||
|| cell_grid_extract_box_real           :  4214      405.64s   5.868%  ------ ||
|| nlxc_vdw_energy                      :   318      407.57s   5.896%  ------ ||
|| density_fftbox_interpolate_multiply  :  5120      437.00s   6.322%  ------ ||
|| fourier_apply_box                    : 22550      458.75s   6.637%  4.140k ||
|| potential_apply_to_ngwf_batch        :   131      461.47s   6.676%  ------ ||
|| edft_apply_smearing_operator         :   125      463.19s   6.701%  ------ ||
|| projectors_gradient_batch            :    14      587.53s   8.500%  ------ ||
|| integrals_locpot_dbl_grid            :   131      617.39s   8.932%  ------ ||
|| projectors_grad_precond_batch        :    14      825.06s  11.936%  ------ ||
|| density_batch_interp_deposit         :   160      904.82s  13.090%  ------ ||
|| density_on_dbl_grid                  :   160     1220.05s  17.650%  ------ ||
|| properties_calculate                 :     1     1241.41s  17.959%  ------ ||
|| hamiltonian_lhxc_calculate           :   155     1546.96s  22.380%  ------ ||
|| ngwf_gradient_build_batch            :    14     1575.56s  22.794%  ------ ||
|| ngwf_gradient_batch                  :    14     1706.39s  24.686%  ------ ||
|| ngwf_gradient_lnv                    :    14     1724.15s  24.943%  ------ ||
|| edft_calculate                       :    14     2577.36s  37.287%  ------ ||
|| ngwf_cg_optimise                     :     1     5649.15s  81.726%  ------ ||
|| total_time                           :     1     6912.30s 100.000%  ------ ||
================================================================================
==================== AVERAGE TIMINGS FROM ALL PROCS (SELF) =====================
++ TAG                                    #calls    cpu time   %total  Gflops ++
++ work_imbalance                       :     1        0.00s   0.000%  ------ ++
++ paw_tcore_density                    :     1        0.01s   0.000%  ------ ++
++ paw_sphere_density_on_grid           :     1        0.01s   0.000%  ------ ++
++ paw_dij_hartree                      :   232        0.01s   0.000%  ------ ++
++ paw_tcore_hartree_on_grid            :     1        0.01s   0.000%  ------ ++
++ sparse_set_to_garbage                :   255        0.01s   0.000%  ------ ++
++ basis_extract_function_from_box      :   369        0.02s   0.000%  ------ ++
++ ngwfs_initialise_from_radial         :     2        0.04s   0.001%  ------ ++
++ sparse_embed_hotelling_invert_embed  :    29        0.08s   0.001%  ------ ++
++ ewald_calculate_energy               :     1        0.11s   0.002%  ------ ++
++ density_init_guess_real              :     1        0.16s   0.002%  ------ ++
++ ngwf_gradient_coeffs                 :    14        0.17s   0.002%  ------ ++
++ paw_dataset_init                     :     3        0.35s   0.005%  ------ ++
++ pseudo_make_structure_factor         :     1        0.47s   0.007%  ------ ++
++ sparse_init                          :     1        0.92s   0.013%  ------ ++
++ dense_normal_eigensolve              :     1        0.96s   0.014%  ------ ++
++ hamiltonian_energy_components        :     3        0.97s   0.014%  ------ ++
++ restart_kernel_write                 :    15        1.45s   0.021%  ------ ++
++ hartree_on_grid                      :   160        1.45s   0.021%  ------ ++
++ aug_nonlocal_mat                     :   218        1.50s   0.022%  ------ ++
++ paw_species_calc_proj_prec_mat       :     1        1.93s   0.028%  ------ ++
++ main_program_(onetep.F90)            :     1        2.21s   0.032%  ------ ++
++ augmentation_screen_dij              :   165        2.72s   0.039%  ------ ++
++ integrals_locpot_dbl_grid            :   131        4.43s   0.064%  ------ ++
++ sw_init                              :     1        6.98s   0.101%  ------ ++
++ augmentation_density_on_grid         :   160        7.74s   0.112%  ------ ++
++ basis_copy_function_to_box           :  6566        8.24s   0.119%  ------ ++
++ paw_dij_xc                           :   232        9.64s   0.139%  ------ ++
++ ngwf_gradient_lnv                    :    14        9.83s   0.142%  ------ ++
++ fourier_apply_box_pair               :   941       10.41s   0.151%  2.389k ++
++ projectors_func_ovlp_box             :    30       20.08s   0.290%  ------ ++
++ projectors_init_fftbox_recip         :    59       24.05s   0.348%  ------ ++
++ nlxc_vdw_energy                      :   318       25.51s   0.369%  ------ ++
++ integrals_kinetic                    :    29       26.24s   0.380%  ------ ++
++ density_on_dbl_grid                  :   160       26.50s   0.383%  ------ ++
++ sparse_trace                         :  5452       26.70s   0.386%  ------ ++
++ edft_calculate                       :    14       33.39s   0.483%  ------ ++
++ hamiltonian_lhxc_calculate           :   155       34.14s   0.494%  ------ ++
++ function_ops_brappd_ketppd           :    60       39.71s   0.575%  ------ ++
++ basis_dot_function_with_box          : 1.771M      49.89s   0.722%  ------ ++ (!) overhead: ~   4.7%
++ xc_energy_potential                  :   159       50.95s   0.737%  ------ ++
++ eigenstates_calculate                :     1       66.46s   0.961%  ------ ++
++ ngwf_gradient_build_batch            :    14       72.11s   1.043%  ------ ++
++ eigenstates_pdos                     :     1       72.73s   1.052%  ------ ++
++ ngwf_gradient_batch                  :    14       81.63s   1.181%  ------ ++
++ dense_eigensolve                     :   252       82.04s   1.187%  ------ ++
++ density_batch_interp_deposit         :   160       87.79s   1.270%  ------ ++
++ fourier_apply_cell_forward           :  5884      108.02s   1.563% 189.595 ++
++ integrals_locpot_mat_els_batch       :   131      112.47s   1.627%  ------ ++
++ fourier_apply_cell_backward          :  6521      123.37s   1.785% 183.979 ++
++ sparse_product                       :  6985      150.30s   2.174%  ------ ++
++ density_fftbox_deposit_to_cell       :  5120      156.37s   2.262%  ------ ++
++ basis_add_function_to_box            : 4.711M     159.93s   2.314%  ------ ++ (!) overhead: ~   3.9%
++ cell_grid_deposit_box_real           : 11609      166.45s   2.408%  ------ ++
++ edft_apply_smearing_operator         :   125      167.45s   2.422%  ------ ++
++ density_fftbox_interpolate_multiply  :  5120      172.10s   2.490%  ------ ++
++ restart_ngwfs_tightbox_output        :    13      180.01s   2.604%  ------ ++
++ density_batch_row_sums               :   160      180.04s   2.605%  ------ ++
++ edft_diag_ngwf_ham                   :   250      204.52s   2.959%  ------ ++
++ potential_apply_to_ngwf_batch        :   131      258.46s   3.739%  ------ ++
++ cell_grid_extract_box_real           :  4214      405.64s   5.868%  ------ ++
++ fourier_apply_box                    : 22550      458.75s   6.637%  4.140k ++
++ projectors_gradient_batch            :    14      576.45s   8.340%  ------ ++
++ properties_calculate                 :     1      739.00s  10.691%  ------ ++
++ projectors_grad_precond_batch        :    14      812.43s  11.753%  ------ ++
++ ngwf_cg_optimise                     :     1      816.78s  11.816%  ------ ++
================================================================================
(!) WARNING: You're wasting precious cycles calling timer. 
             Each pair of timer_clock calls itself cost   1.32 microseconds!
Overhead of generating timer report: 
- 0 ms averaging over threads,
- 28 ms ensuring consistency across MPI ranks,
- 0 ms printing in order.

Job completed: 15-09-2021 23:52 (+0100)

