 +---------------------------------------------------------------+
 |                                                               |
 |        ####### #     # ####### ####### ####### ######         |
 |        #     # ##    # #          #    #       #     #        |
 |        #     # # #   # #          #    #       #     #        |
 |        #     # #  #  # #####      #    #####   ######         |
 |        #     # #   # # #          #    #       #              |
 |        #     # #    ## #          #    #       #              |
 |        ####### #     # #######    #    ####### #              |
 |                                                               |
 |        Linear-Scaling Ab Initio Total Energy Program          |
 |                                                               |
 |          Release for academic collaborators of ODG            |
 |                                             Version 5.3.2.12  |
 |                                                               |
 +---------------------------------------------------------------+
 |                                                               |
 |  Authors:                                                     |
 |  Jacek Dziedzic, Peter D. Haynes, Nicholas D. M. Hine,        |
 |  Arash. A. Mostofi, Mike C. Payne and Chris-Kriton Skylaris   |
 |                                                               |
 |  Contributors:                                                |
 |  J. Aarons, L. Andrinopoulos, P. W. Avraam, R. A. Bell,       |
 |  A. Bhandari, G. A. Bramley, R. J. Charlton, S. J. Clark,     |
 |  R. J. Clements, G. C. Constantinescu, F. Corsetti,           |
 |  N. Corsini, O. Dieguez, S. M. M. Dubois, K. K. B. Duff,      |
 |  J. M. Escartin, A. Greco, H. Helal, Q. O. Hill, L. P. Lee,   |
 |  J.-H. Li, E. B. Linscott, G. Moynihan, D. D. O`Regan,        |
 |  O. K. Okan, M. J. S. Phipps, C. J. Pickard,                  |
 |  J. C. A. Prentice, M. I. J. Probert, L. E. Ratcliff,         |
 |  M. Robinson, A. Ruiz Serrano, J. S. Spencer, E. W. Tait,     |
 |  G. Teobaldi, D. Turban, V. Vitale, K. A. Wilkinson,          |
 |  C. Weber, J. C. Womack, N. Yeung and T. J. Zuehlsdorff       |
 |                                                               |
 |                                   Copyright (c) 2004-2020     |
 |                                                               |
 |  Please cite:                                                 |
 |  "Introducing ONETEP: Linear-scaling density functional       |
 |   simulations on parallel computers".                         |
 |   C.-K. Skylaris, P. D. Haynes, A. A. Mostofi, M. C. Payne.   |
 |   J. Chem. Phys. 122 084119 (2005).                           |
 |                                                               |
 |          in all publications arising from your use of ONETEP. |
 |                                                               |
 +---------------------------------------------------------------+
 |                                                               |
 |   ONETEP is based on developments described in the following  |
 |   publications:                                               |
 |                                                               |
 |  "Nonorthogonal generalized Wannier function pseudopotential  |
 |   plane-wave method".                                         |
 |   C.-K. Skylaris, A. A. Mostofi, P. D. Haynes, O. Dieguez,    |
 |   M. C. Payne.                                                |
 |   Phys. Rev. B 66 035119 (2002).                              |
 |                                                               |
 |  "Preconditioned iterative minimization for linear-scaling    |
 |   electronic structure calculations".                         |
 |   A. A. Mostofi, P. D. Haynes, C.-K. Skylaris, M. C. Payne.   |
 |   J. Chem. Phys. 119(17), pp.8842-8848 (2003).                |
 |                                                               |
 |  "Total-energy calculations on a real space grid with         |
 |   localized functions and a plane-wave basis".                |
 |   A. A. Mostofi, C.-K. Skylaris, P. D. Haynes, M. C. Payne.   |
 |   Comput. Phys. Commun. 147, pp.788-802 (2002).               |
 |                                                               |
 |  "Accurate kinetic energy evaluation in electronic structure  |
 |   calculations with localized functions on real space grids"  |
 |   C.-K. Skylaris, A. A. Mostofi, P. D. Haynes, C. J. Pickard, |
 |   M. C. Payne.                                                |
 |   Comput. Phys. Commun. 140, pp.315-322 (2001).               |
 |                                                               |
 |  "Accurate ionic forces and geometry optimization in linear-  |
 |   scaling density-functional theory with local orbitals"      |
 |   N. D. M. Hine, M. Robinson, P. D. Haynes, C.-K. Skylaris,   |
 |   M. C. Payne, and A. A. Mostofi.                             |
 |   Phys. Rev. B 83 195102 (2011).                              |
 |                                                               |
 +---------------------------------------------------------------+

Job started: 27-09-2020 08:00 (+0100)
 
Reading parameters from file "30/592nano.dat" ...... done

If your calculation crashes here, before "Checking processes and threads..."
is displayed, then your stack size is insufficient.
If so, use "ulimit -s unlimited" at runtime.
You can disable this check with "check_stack_size F".

Checking processes and threads...
   Determining the default number of threads...
      No default threads set at compilation time: defaulting to 1.
      OpenMP library call suggests 4 threads.
      Hybrid MPI-OpenMP compilation detected.
      Number of MPI processes > 1.
      OMP_NUM_THREADS environment variable present and
      its value matches the one obtained from the OpenMP library call.
      Using this value as default.
      Default threads: 4
      Default applies to threads_max and threads_num_fftboxes.
      Settings in the input file override this default.
   ... done

   Running with 160 MPI processes.
   There are 10 MPI processes running on the same node as the root process.
   Each MPI process is using: 
               1 threads for simulation cell FFTs.
               1 threads for parallel FFT box operations.
               4 threads for loops over batched FFT box operations.
               4 threads in other parallel regions.
... done

Basic input checks...
Resetting ngwf_cg_rotate to TRUE for EDFT calculations
... done

Reading geometry and species blocks from file "30/592nano.dat" ...    
  Number of PPD points along a3 set to 1.  This is 
  the default value, it may have been provided also in the input file.
... done
 Writing xyz coordinates to file "30/592nano.xyz" ... done


--------------------------------------------------------------------------------
---------------------------------- INPUT FILE ----------------------------------
--------------------------------------------------------------------------------

task : singlepoint                                                              
do_properties : true                                                            
ddec_classical_hirshfeld T                                                      
dx_format T                                                                     
edft T                                                                          
edft_spin_fix 3                                                                 
output_detail VERBOSE                                                           
write_xyz T                                                                     
dispersion 4                                                                    
xc_functional PBE                                                               
cutoff_energy 830 eV                                                            
paw T                                                                           
geom_disp_tol 0.015 bohr                                                        
geom_energy_tol 1.5E-6 hartree                                                  
geom_force_tol 0.003 "ha/bohr"                                                  
EDFT_MAXIT 30                                                                   
pdos_max_l = 2                                                                  
dos_smear  0.1 eV                                                               
popn_calculate T                                                                
PDOS_PSEUDOATOMIC T                                                             
PDOS_REDUCE_SWS F                                                               
PDOS_CONSTRUCT_BASIS F                                                          
PDOS_LOWDIN T                                                                   
PDOS_ORTH_ATOM_BLOCKS F                                                         
PDOS_LCAO_OPTIMIZE F                                                            
pdos_optados_output T                                                           
homo_plot 0                                                                     
lumo_plot 0                                                                     
homo_dens_plot -1                                                               
lumo_dens_plot -1                                                               
%BLOCK SPECIES                                                                  
C C 6 4 9.0                                                                     
H H 1 1 9.0                                                                     
Li Li 3 5 9.0                                                                   
%ENDBLOCK SPECIES                                                               
%BLOCK SPECIES_POT                                                              
C "~/pp/paw/c_pbe_abinit.paw"                                                   
H "~/pp/paw/h_pbe_abinit.paw"                                                   
Li "~/pp/paw/li_pbe_abinit.paw"                                                 
%ENDBLOCK SPECIES_POT                                                           
%BLOCK SPECIES_ATOMIC_SET                                                       
C "SOLVE conf=2s2 2p2"                                                          
H "SOLVE conf=1s1"                                                              
Li "SOLVE conf=1s2 2s1 2p0"                                                     
%ENDBLOCK SPECIES_ATOMIC_SET                                                    
%BLOCK SPECIES_LDOS_GROUPS                                                      
C                                                                               
H                                                                               
Li                                                                              
%ENDBLOCK SPECIES_LDOS_GROUPS                                                   
%BLOCK LATTICE_CART                                                             
94.486315650000      0.000000000000       0.000000000000                        
0.000000000000       94.486315650000      0.000000000000                        
0.000000000000       0.000000000000       94.486315650000                       
%ENDBLOCK LATTICE_CART                                                          
%BLOCK POSITIONS_ABS                                                            
C 45.500346 50.676616 30.682943                                                 
C 45.454994 50.577805 36.775731                                                 
C 46.835063 53.022872 30.659405                                                 
C 48.151292 50.569041 36.779985                                                 
C 49.564036 48.364028 30.615759                                                 
C 49.493283 48.229596 36.765817                                                 
C 50.898121 50.712627 30.592742                                                 
C 52.188414 48.220749 36.775649                                                 
C 45.471956 55.350385 30.577116                                                 
C 45.462687 55.247719 36.775624                                                 
C 46.806784 57.694467 30.431403                                                 
C 48.154257 55.242252 36.786917                                                 
C 49.533922 53.038179 30.613563                                                 
C 49.497246 52.904704 36.791274                                                 
C 50.868680 55.383231 30.470294                                                 
C 52.192354 52.899915 36.804785                                                 
C 45.399279 50.468549 43.014275                                                 
C 45.381287 50.415125 49.118031                                                 
C 46.745302 52.802557 43.028405                                                 
C 48.081142 50.423652 49.143164                                                 
C 49.439858 48.141865 42.996995                                                 
C 49.435320 48.089234 49.194496                                                 
C 50.786634 50.476977 43.010148                                                 
C 52.131951 48.098112 49.328755                                                 
C 45.397295 55.134501 43.044260                                                 
C 45.366904 55.086994 49.238806                                                 
C 46.742768 57.472967 43.057074                                                 
C 48.061242 55.095206 49.268559                                                 
C 49.440055 52.804500 43.028264                                                 
C 49.418601 52.765284 49.215228                                                 
C 50.788223 55.140797 43.038219                                                 
C 52.115082 52.776320 49.348153                                                 
C 57.650195 48.418568 30.032550                                                 
C 57.568592 48.214913 36.896489                                                 
C 58.984690 50.764347 29.908216                                                 
C 60.301961 48.215314 37.022881                                                 
C 57.531698 48.163453 42.900927                                                 
C 57.504745 48.118731 49.791678                                                 
C 58.888383 50.481899 42.864542                                                 
C 60.231831 48.135587 50.013957                                                 
C 53.596370 50.731059 30.430578                                                 
C 53.535150 50.559565 36.808957                                                 
C 54.920288 53.075047 30.283069                                                 
C 56.234686 50.558150 36.866626                                                 
C 53.486551 50.481613 42.996725                                                 
C 53.468134 50.443513 49.409654                                                 
C 54.833695 52.809369 42.997992                                                 
C 56.155256 50.452679 49.663982                                                 
C 57.679559 43.756365 29.845782                                                 
C 57.587099 43.541960 36.836852                                                 
C 59.012220 46.077801 29.807455                                                 
C 60.308292 43.559827 36.947564                                                 
C 57.543128 43.505138 42.878050                                                 
C 57.526524 43.460497 50.035571                                                 
C 58.886927 45.832310 42.842122                                                 
C 60.230433 43.493265 50.324007                                                 
C 53.624806 46.061971 30.315374                                                 
C 53.532439 45.882548 36.769519                                                 
C 54.960306 48.403111 30.301775                                                 
C 56.232513 45.888548 36.811041                                                 
C 53.485426 45.821256 42.951938                                                 
C 53.481848 45.772136 49.503109                                                 
C 54.836348 48.153770 42.959729                                                 
C 56.177094 45.795628 49.745624                                                 
C 57.583442 57.753215 29.794525                                                 
C 57.583146 57.581125 36.942731                                                 
C 58.906175 60.112069 29.512404                                                 
C 60.301908 57.563141 36.957940                                                 
C 57.540317 57.478511 42.913858                                                 
C 57.482439 57.460039 50.008405                                                 
C 58.881812 59.834526 42.821622                                                 
C 60.200011 57.440329 50.257528                                                 
C 45.413811 64.675060 29.716889                                                 
C 45.479476 64.602795 36.857458                                                 
C 46.768495 67.014631 29.447988                                                 
C 48.170044 64.605757 36.845920                                                 
C 49.467395 62.354396 29.892418                                                 
C 49.528592 62.248202 36.847603                                                 
C 50.830182 64.719428 29.570769                                                 
C 52.223555 62.247041 36.955692                                                 
C 45.388493 64.483265 42.943489                                                 
C 45.337209 64.407623 50.093985                                                 
C 46.759330 66.824759 42.827745                                                 
C 48.021984 64.415673 50.157820                                                 
C 49.426038 62.145401 43.011938                                                 
C 49.381926 62.088156 49.934980                                                 
C 50.791439 64.508677 42.986825                                                 
C 52.061479 62.108864 50.071052                                                 
C 53.534781 60.051916 29.990024                                                 
C 53.546937 59.911957 36.912526                                                 
C 54.880881 62.420894 29.755912                                                 
C 56.246632 59.911481 36.978213                                                 
C 53.478809 59.802828 42.953813                                                 
C 53.421069 59.783781 49.862881                                                 
C 54.835960 62.183339 42.845341                                                 
C 56.138461 59.788790 50.027547                                                 
C 57.618164 53.087103 30.017739                                                 
C 57.570721 52.905697 36.932878                                                 
C 58.950479 55.444867 29.785671                                                 
C 60.303595 52.907052 37.061036                                                 
C 57.536860 52.810723 42.929871                                                 
C 57.479595 52.793135 49.875015                                                 
C 58.891649 55.162618 42.908565                                                 
C 60.208139 52.789458 50.216111                                                 
C 45.447229 60.015020 30.241845                                                 
C 45.471467 59.918874 36.773574                                                 
C 46.785007 62.346459 29.974190                                                 
C 48.168952 59.915701 36.786931                                                 
C 49.503463 57.708800 30.372152                                                 
C 49.506655 57.578929 36.798512                                                 
C 50.836837 60.040985 30.108457                                                 
C 52.199170 57.576526 36.835887                                                 
C 45.396122 59.802290 43.045275                                                 
C 45.348103 59.747056 49.593158                                                 
C 46.747458 62.141546 43.015578                                                 
C 48.045576 59.758863 49.631845                                                 
C 49.438431 57.473798 43.046812                                                 
C 49.400890 57.436407 49.457665                                                 
C 50.782217 59.811814 43.016018                                                 
C 52.094033 57.446396 49.573858                                                 
C 53.557783 55.398009 30.304273                                                 
C 53.538423 55.236990 36.834263                                                 
C 54.884688 57.744902 30.058150                                                 
C 56.232086 55.230567 36.889502                                                 
C 53.481014 55.139546 43.015081                                                 
C 53.450921 55.113776 49.522042                                                 
C 54.825680 57.481464 42.978578                                                 
C 56.139376 55.113736 49.773716                                                 
H 27.350767 41.266453 29.176860                                                 
H 28.226206 39.539716 36.895736                                                 
H 27.195210 41.142192 42.629383                                                 
H 28.217332 39.303164 50.190344                                                 
H 41.915247 30.247882 29.193950                                                 
C 42.940597 32.038249 29.307303                                                 
H 44.387563 30.150586 36.938046                                                 
H 41.762195 29.996621 42.706512                                                 
C 42.769057 31.798730 42.786160                                                 
H 44.411118 30.004974 50.620756                                                 
H 29.698944 37.199411 29.154765                                                 
C 30.724185 38.985885 29.318310                                                 
H 32.270554 37.177915 36.837965                                                 
H 33.780691 34.845214 29.186931                                                 
C 34.803688 36.630672 29.365889                                                 
H 29.511857 37.074270 42.646388                                                 
C 30.553452 38.860190 42.694009                                                 
H 32.271905 36.966098 50.246682                                                 
H 33.548835 34.691103 42.698512                                                 
C 34.601491 36.468689 42.753456                                                 
H 37.854556 32.553026 29.055317                                                 
C 38.867714 34.345185 29.241416                                                 
H 40.342274 32.491964 36.894313                                                 
H 37.651998 32.311932 42.783620                                                 
C 38.667934 34.109022 42.849192                                                 
H 40.353900 32.326665 50.390332                                                 
H 46.610033 30.273498 29.377436                                                 
H 46.427463 30.032329 42.516158                                                 
H 25.846937 48.288343 36.975275                                                 
C 27.912501 48.291477 36.933730                                                 
H 25.830314 48.034343 50.515733                                                 
C 27.891528 48.044205 50.365913                                                 
H 25.874241 43.595011 36.890264                                                 
H 27.321420 45.958924 29.341005                                                 
C 27.941028 43.595843 36.891872                                                 
H 25.851315 43.360052 50.347230                                                 
H 27.189452 45.820382 42.761636                                                 
C 27.915943 43.363391 50.280076                                                 
H 25.911805 57.694083 37.018374                                                 
H 27.263255 59.939333 29.499822                                                 
C 27.979933 57.686019 37.004765                                                 
H 25.819642 57.392888 50.441152                                                 
H 27.213864 59.838609 43.020481                                                 
C 27.886507 57.404667 50.376285                                                 
H 25.865340 53.011456 37.010613                                                 
H 27.283353 55.257853 29.454154                                                 
C 27.930913 52.988764 36.962244                                                 
H 25.813963 52.714062 50.477103                                                 
H 27.198505 55.163245 42.880321                                                 
C 27.876198 52.711044 50.344967                                                 
C 29.412857 41.264375 29.314625                                                 
C 29.253520 41.335696 36.883317                                                 
C 30.687555 43.625417 29.511563                                                 
C 31.940790 41.264214 36.937446                                                 
C 33.419293 38.911069 29.457480                                                 
C 33.308725 38.963542 36.727300                                                 
C 34.754273 41.288041 29.728376                                                 
C 35.977368 38.903421 36.922881                                                 
C 29.383261 45.959498 29.513384                                                 
C 29.216720 45.954576 36.961387                                                 
C 30.671756 48.276628 29.551777                                                 
C 31.944685 45.936616 36.902283                                                 
C 33.403881 43.613424 29.753183                                                 
C 33.290652 43.615357 36.876693                                                 
C 34.744840 45.962332 29.978624                                                 
C 36.002981 43.604574 36.809060                                                 
C 29.262190 41.123687 42.698086                                                 
C 29.234887 41.101935 50.192614                                                 
C 30.552105 43.495968 42.708195                                                 
C 31.924431 41.044947 50.108363                                                 
C 33.239693 38.774872 42.699152                                                 
C 33.302915 38.756176 50.133115                                                 
C 34.591314 41.135970 42.803760                                                 
C 35.954244 38.724538 50.160492                                                 
C 29.254155 45.820267 42.875146                                                 
C 29.193165 45.744971 50.269295                                                 
C 30.542902 48.147518 42.937158                                                 
C 31.919834 45.732322 50.052542                                                 
C 33.264675 43.471189 42.843734                                                 
C 33.265612 43.408969 49.989980                                                 
C 34.613416 45.815088 42.959307                                                 
C 35.973823 43.407021 49.794369                                                 
C 41.516986 39.003277 29.834395                                                 
C 41.393877 38.922512 36.769117                                                 
C 42.851457 41.330739 30.145279                                                 
C 44.074841 38.916893 36.777620                                                 
C 41.352043 38.785625 42.945683                                                 
C 41.383839 38.756407 49.930343                                                 
C 42.701871 41.124011 42.993151                                                 
C 44.062625 38.753158 49.818343                                                 
C 37.471481 41.295936 29.895449                                                 
C 37.343768 41.276422 36.833572                                                 
C 38.795959 43.635166 30.189630                                                 
C 40.038786 41.257923 36.776412                                                 
C 37.306399 41.121626 42.907052                                                 
C 37.319099 41.090623 49.895042                                                 
C 38.658240 43.464878 42.993196                                                 
C 40.015324 41.074531 49.732551                                                 
C 41.515473 34.327981 29.353559                                                 
C 41.372630 34.283132 36.816554                                                 
C 42.878883 36.680127 29.624041                                                 
C 44.037177 34.234661 36.959103                                                 
C 41.343679 34.074297 42.834111                                                 
C 41.375097 34.119039 50.233784                                                 
C 42.720704 36.438197 42.904686                                                 
C 44.050648 34.085197 50.329639                                                 
C 37.483617 36.598542 29.369768                                                 
C 37.345797 36.620882 36.826860                                                 
C 38.835552 38.978993 29.685480                                                 
C 40.013476 36.564080 36.791599                                                 
C 37.270216 36.393290 42.793405                                                 
C 37.342743 36.435201 50.011521                                                 
C 38.646551 38.781230 42.891862                                                 
C 40.011786 36.393768 50.215003                                                 
C 41.465109 48.317172 30.556409                                                 
C 41.407274 48.257553 36.753818                                                 
C 42.800667 50.661109 30.631879                                                 
C 44.102585 48.247100 36.762746                                                 
C 41.358471 48.131462 43.025317                                                 
C 41.343113 48.070439 49.227575                                                 
C 42.705115 50.466829 43.021654                                                 
C 44.039923 48.072921 49.150568                                                 
C 29.347990 55.268461 29.589581                                                 
C 29.249237 55.313339 37.013925                                                 
C 30.633263 57.608581 29.624064                                                 
C 31.972321 55.313391 36.933841                                                 
C 33.382944 52.968106 29.869386                                                 
C 33.318747 52.954900 36.840848                                                 
C 34.709586 55.293926 29.974979                                                 
C 36.022880 52.943032 36.771655                                                 
C 29.266545 55.149294 42.940638                                                 
C 29.175842 55.037246 50.297831                                                 
C 30.563916 57.474565 42.939977                                                 
C 31.889514 55.056494 50.072548                                                 
C 33.287507 52.814225 42.920874                                                 
C 33.246972 52.713792 49.876603                                                 
C 34.630687 55.135964 42.953030                                                 
C 35.939600 52.724384 49.585049                                                 
C 37.410479 50.637016 30.327385                                                 
C 37.363146 50.604422 36.750795                                                 
C 38.746626 52.980325 30.403315                                                 
C 40.064565 50.594964 36.749319                                                 
C 37.317793 50.470012 43.018973                                                 
C 37.288915 50.399598 49.447881                                                 
C 38.666049 52.802223 43.019312                                                 
C 39.987402 50.402829 49.263445                                                 
C 41.490306 43.650715 30.314863                                                 
C 41.390792 43.591124 36.752484                                                 
C 42.827250 45.990727 30.512586                                                 
C 44.089734 43.581252 36.738219                                                 
C 41.352924 43.460746 43.011270                                                 
C 41.356627 43.403031 49.455727                                                 
C 42.702472 45.797482 43.019597                                                 
C 44.057081 43.403900 49.366839                                                 
C 29.366740 50.611300 29.724430                                                 
C 29.201047 50.634362 36.955169                                                 
C 30.654236 52.958530 29.578462                                                 
C 31.955683 50.625394 36.861208                                                 
C 33.401876 48.280186 29.863981                                                 
C 33.306906 48.283835 36.830575                                                 
C 34.722727 50.627498 30.050007                                                 
C 36.008123 48.276362 36.764912                                                 
C 29.261121 50.479652 42.915223                                                 
C 29.170193 50.368896 50.287553                                                 
C 30.549598 52.815124 42.801228                                                 
C 31.907787 50.380611 50.016155                                                 
C 33.275004 48.134864 42.967600                                                 
C 33.264349 48.065791 49.867093                                                 
C 34.621607 50.472656 42.982820                                                 
C 35.949429 48.066433 49.596508                                                 
C 37.435481 45.963693 30.234372                                                 
C 37.352880 45.939116 36.765234                                                 
C 38.767697 48.302689 30.408807                                                 
C 40.050169 45.929078 36.752385                                                 
C 37.316952 45.801227 43.005232                                                 
C 37.307498 45.737390 49.560684                                                 
C 38.663400 48.131761 43.028489                                                 
C 40.000805 45.733936 49.379766                                                 
C 45.561382 32.053686 29.411393                                                 
C 45.439403 31.929434 36.912697                                                 
C 46.948230 34.354111 29.548605                                                 
C 48.047385 31.909429 36.914968                                                 
H 49.074213 30.115113 36.922070                                                 
H 50.662757 32.632756 29.374647                                                 
C 45.564884 36.691714 29.707607                                                 
C 45.418103 36.570160 36.854515                                                 
C 46.911081 39.034459 29.953461                                                 
C 48.101208 36.544195 36.901277                                                 
C 49.621972 34.413179 29.531564                                                 
C 49.463125 34.187924 36.973963                                                 
C 50.966244 36.698190 29.571464                                                 
C 52.140197 34.206959 36.948243                                                 
C 45.400708 31.818671 42.651599                                                 
C 45.444178 31.789492 50.452102                                                 
C 46.790496 34.112526 42.756803                                                 
C 48.065462 31.773499 50.312930                                                 
H 49.080090 29.974622 50.388783                                                 
H 50.491547 32.374915 42.696670                                                 
C 45.405952 36.452492 42.889736                                                 
C 45.423093 36.416246 50.037568                                                 
C 46.757698 38.800220 42.923330                                                 
C 48.102985 36.407015 50.021473                                                 
C 49.465119 34.166906 42.803379                                                 
C 49.480546 34.051868 50.216042                                                 
C 50.817935 36.445328 42.750657                                                 
C 52.153710 34.089575 50.221681                                                 
H 53.145913 32.404171 36.991727                                                 
H 53.174584 32.300665 50.370080                                                 
C 57.672121 39.099633 29.756554                                                 
C 57.602589 38.829339 37.021885                                                 
C 59.033634 41.415405 29.618440                                                 
C 60.288922 38.917725 37.166871                                                 
C 57.524109 38.854752 42.895640                                                 
C 57.557573 38.776503 50.343804                                                 
C 58.894335 41.148948 42.911374                                                 
C 60.242999 38.867346 50.466553                                                 
C 45.526725 46.004766 30.561259                                                 
C 45.444647 45.909482 36.751605                                                 
C 46.865622 48.346696 30.655152                                                 
C 48.141122 45.897557 36.749406                                                 
C 49.589050 43.698978 30.363045                                                 
C 49.484678 43.557328 36.749641                                                 
C 50.928125 46.040210 30.471486                                                 
C 52.183852 43.549183 36.759205                                                 
C 45.398785 45.799888 43.004996                                                 
C 45.396891 45.740229 49.209064                                                 
C 46.746216 48.134568 43.003876                                                 
C 48.095714 45.748410 49.229361                                                 
C 49.442449 43.474399 42.964725                                                 
C 49.452232 43.416019 49.400582                                                 
C 50.789022 45.810416 42.976204                                                 
C 52.145491 43.431175 49.540543                                                 
C 53.639715 41.413089 29.934458                                                 
C 53.527311 41.207413 36.813528                                                 
C 54.976107 43.739057 30.057576                                                 
C 56.249173 41.210082 36.861947                                                 
C 53.495527 41.165312 42.868977                                                 
C 53.496885 41.100933 49.830297                                                 
C 54.831504 43.491007 42.907799                                                 
C 56.204185 41.124857 50.079643                                                 
H 57.261574 34.750023 37.090914                                                 
H 58.716686 37.326647 29.521233                                                 
H 57.259591 34.693154 50.487926                                                 
H 58.567654 37.069826 42.823199                                                 
C 45.548396 41.347767 30.199681                                                 
C 45.435913 41.249100 36.738904                                                 
C 46.889031 43.681120 30.409513                                                 
C 48.127429 41.230574 36.757088                                                 
C 49.593001 39.051023 29.881523                                                 
C 49.472564 38.884425 36.838196                                                 
C 50.946273 41.379213 30.087695                                                 
C 52.170837 38.867134 36.876196                                                 
C 45.396124 41.131363 42.979674                                                 
C 45.413038 41.078043 49.542203                                                 
C 46.743951 43.466645 42.987715                                                 
C 48.108279 41.079430 49.550993                                                 
C 49.439562 38.809123 42.859264                                                 
C 49.460791 38.752198 49.811509                                                 
C 50.796667 41.140439 42.911738                                                 
C 52.161387 38.759139 49.938076                                                 
C 53.644422 36.759482 29.731086                                                 
C 53.545264 36.476030 36.981995                                                 
C 55.008844 39.055435 29.648925                                                 
C 56.220706 36.532356 36.991147                                                 
C 53.490306 36.509907 42.997341                                                 
C 53.540952 36.381737 50.207092                                                 
C 54.873007 38.803823 42.788135                                                 
C 56.207317 36.463888 50.326836                                                 
H 61.339508 37.144925 37.325182                                                 
H 62.751117 39.673587 29.525973                                                 
H 61.283086 37.084775 50.583126                                                 
H 62.599628 39.419578 42.956927                                                 
H 28.285492 61.734533 37.068174                                                 
H 28.163598 61.449815 50.486209                                                 
C 29.329949 59.962829 29.526191                                                 
C 29.297661 59.930855 37.021663                                                 
C 30.623492 62.240572 29.461860                                                 
C 31.998381 59.989777 37.042790                                                 
C 33.350854 57.635777 29.770643                                                 
C 33.333095 57.626450 36.913213                                                 
C 34.682778 59.967511 29.726579                                                 
C 36.038443 57.618872 36.812033                                                 
H 29.584922 64.025420 29.386197                                                 
H 32.339387 64.064299 36.993905                                                 
C 33.324277 62.330547 29.507990                                                 
C 33.366604 62.271988 36.886320                                                 
C 34.659155 64.613582 29.435768                                                 
C 36.025449 62.308215 36.834145                                                 
C 29.280063 59.846679 42.971207                                                 
C 29.186405 59.652829 50.401255                                                 
C 30.581309 62.116963 42.912992                                                 
C 31.888376 59.726077 50.333440                                                 
C 33.284425 57.489103 42.907989                                                 
C 33.230928 57.378779 50.045856                                                 
C 34.626990 59.819465 42.873467                                                 
C 35.931512 57.395084 49.777535                                                 
H 29.549375 63.908693 42.929732                                                 
H 32.202366 63.805338 50.391878                                                 
C 33.281342 62.195886 42.839645                                                 
C 33.238935 62.023404 50.215638                                                 
C 34.627153 64.477368 42.824574                                                 
C 35.896039 62.079006 50.061717                                                 
C 41.418628 57.665672 30.344434                                                 
C 41.424381 57.593713 36.764678                                                 
C 42.750649 60.000557 30.203796                                                 
C 44.120361 57.588553 36.767058                                                 
C 41.359271 57.472242 43.025154                                                 
C 41.311346 57.407972 49.452643                                                 
C 42.702876 59.804253 43.022584                                                 
C 44.009831 57.416500 49.395834                                                 
C 37.376379 59.976666 29.926421                                                 
C 37.380691 59.935784 36.808129                                                 
C 38.695403 62.311635 29.786415                                                 
C 40.078960 59.932768 36.797510                                                 
C 37.326029 59.812533 42.927209                                                 
C 37.261359 59.717799 49.833047                                                 
C 38.654867 62.149036 42.888642                                                 
C 39.957195 59.729160 49.708603                                                 
C 41.441911 52.991802 30.559026                                                 
C 41.416128 52.922580 36.756737                                                 
C 42.777565 55.334680 30.528558                                                 
C 44.111880 52.915881 36.771914                                                 
C 41.361407 52.799971 43.027023                                                 
C 41.326325 52.738715 49.224177                                                 
C 42.707121 55.133323 43.037133                                                 
C 44.024042 52.746639 49.160324                                                 
C 37.395979 55.310008 30.222426                                                 
C 37.378836 55.270786 36.769924                                                 
C 38.727480 57.653407 30.194668                                                 
C 40.070754 55.261722 36.753661                                                 
C 37.324054 55.137287 42.996183                                                 
C 37.280218 55.062362 49.536931                                                 
C 38.668499 57.475445 42.992387                                                 
C 39.967523 55.070571 49.362782                                                 
C 41.350514 67.014722 29.509696                                                 
C 41.437408 66.915264 36.936671                                                 
C 42.751409 69.311333 29.423311                                                 
C 44.101965 66.954670 36.940283                                                 
C 41.332569 66.847437 42.877723                                                 
C 41.291247 66.700742 50.256920                                                 
C 42.749212 69.141882 42.916423                                                 
C 43.950293 66.746136 50.255898                                                 
H 37.651363 68.757752 29.355969                                                 
H 40.410330 68.707213 37.061125                                                 
H 37.643379 68.611595 42.853123                                                 
H 40.255418 68.485750 50.403016                                                 
C 41.388186 62.322835 29.919900                                                 
C 41.438708 62.259425 36.864780                                                 
C 42.731803 64.672486 29.718713                                                 
C 44.121088 62.255874 36.815244                                                 
C 41.349431 62.144784 42.951339                                                 
C 41.309146 62.056691 49.926954                                                 
C 42.705433 64.494886 42.928233                                                 
C 43.987088 62.066251 49.849087                                                 
H 33.614565 66.391717 29.289691                                                 
H 33.585532 66.264099 42.802717                                                 
C 37.310376 64.675288 29.523073                                                 
C 37.403188 64.584174 36.870425                                                 
C 38.684800 66.972236 29.478817                                                 
C 40.065101 64.630601 37.009061                                                 
C 37.278029 64.526642 42.818689                                                 
C 37.262674 64.359609 50.158054                                                 
C 38.670281 66.817980 42.865320                                                 
C 39.925505 64.410827 50.251538                                                 
C 61.718289 41.471825 29.585449                                                 
C 61.596222 41.211276 37.141658                                                 
C 63.025183 43.742311 29.579540                                                 
H 63.659491 41.203767 37.251563                                                 
C 61.736619 46.092720 29.563063                                                 
C 61.595255 45.900518 36.940482                                                 
C 63.025608 48.438664 29.496549                                                 
H 63.656582 45.890633 37.109869                                                 
H 65.091782 43.739005 29.558920                                                 
C 61.581452 41.217092 42.927102                                                 
C 61.527260 41.131143 50.453769                                                 
C 62.898682 43.479316 42.847917                                                 
H 63.591680 41.159290 50.562614                                                 
C 61.618438 45.854187 42.789814                                                 
C 61.528847 45.818992 50.168248                                                 
C 62.918242 48.158021 42.775515                                                 
H 63.588771 45.830282 50.344575                                                 
H 64.965207 43.477721 42.830427                                                 
C 61.665307 55.450495 29.557376                                                 
C 61.595800 55.226154 36.999215                                                 
C 62.930079 57.824875 29.464174                                                 
H 63.661989 55.227884 37.114949                                                 
H 65.054925 53.165687 29.387141                                                 
C 61.618370 55.150110 42.871322                                                 
C 61.497432 55.116398 50.249577                                                 
C 62.891968 57.516254 42.905753                                                 
H 63.559258 55.120627 50.410936                                                 
H 64.990710 52.830004 42.853117                                                 
C 61.729816 50.775934 29.605047                                                 
C 61.594691 50.561590 36.858168                                                 
C 62.994692 53.131685 29.546089                                                 
H 65.081240 48.444157 29.303266                                                 
C 61.637511 50.478429 42.791813                                                 
C 61.507299 50.464477 50.116214                                                 
C 62.924007 52.822796 42.856271                                                 
H 64.985125 48.147510 42.733785                                                 
H 41.707912 71.094021 29.343743                                                 
H 44.474346 71.036177 37.074553                                                 
H 41.714844 70.932574 42.922052                                                 
H 44.300739 70.830397 50.434952                                                 
C 45.356859 69.310987 29.385850                                                 
C 45.512282 69.251052 36.997627                                                 
H 46.397894 71.094997 29.272759                                                 
C 48.138085 69.258221 36.952047                                                 
C 49.440158 66.998352 29.588400                                                 
C 49.557478 66.961987 36.918140                                                 
H 50.459302 68.790393 29.414114                                                 
C 52.229185 66.917558 36.957177                                                 
H 49.169856 71.048102 37.012372                                                 
C 45.348755 69.130763 42.881548                                                 
C 45.349571 69.050353 50.390044                                                 
H 46.397514 70.913367 42.843994                                                 
C 47.965292 69.060145 50.476145                                                 
C 49.422558 66.786166 42.951631                                                 
C 49.390271 66.765254 50.409916                                                 
H 50.453913 68.576818 42.860875                                                 
C 52.038251 66.748342 50.494558                                                 
H 48.994784 70.848651 50.588559                                                 
H 57.303602 66.345380 37.114548                                                 
H 57.125654 66.237853 50.540828                                                 
H 53.256574 68.709769 36.995686                                                 
H 53.052001 68.542480 50.666037                                                 
C 57.533253 62.393588 29.631510                                                 
C 57.598524 62.281355 37.052751                                                 
H 58.552417 64.184183 29.460748                                                 
C 60.295445 62.196906 37.014529                                                 
C 57.509548 62.131539 43.012412                                                 
C 57.476307 62.166241 50.289978                                                 
H 58.544325 63.919820 42.877492                                                 
C 60.173320 62.084436 50.445662                                                 
C 53.492761 64.691331 29.626234                                                 
C 53.608128 64.625214 37.050270                                                 
C 56.257519 64.563651 37.072480                                                 
C 53.458692 64.458753 42.951291                                                 
C 53.419336 64.489935 50.370161                                                 
C 56.100190 64.451722 50.371328                                                 
C 61.604477 60.064584 29.439855                                                 
C 61.593795 59.921896 36.958953                                                 
H 62.607360 61.870646 29.346860                                                 
H 63.659604 59.899685 36.947283                                                 
H 64.996780 57.836128 29.389895                                                 
H 61.332422 63.983423 37.025415                                                 
C 61.575666 59.770692 42.863441                                                 
C 61.478068 59.808097 50.459770                                                 
H 62.597292 61.569562 42.806349                                                 
H 63.539159 59.803802 50.613750                                                 
H 64.960199 57.521369 42.899882                                                 
H 61.198846 63.870433 50.622296                                                 
H 63.566462 50.471762 50.301647                                                 
H 36.316764 34.645013 50.164079                                                 
H 36.226134 66.140411 50.345842                                                 
H 27.196122 50.485008 42.802002                                                 
H 54.487323 66.249970 42.834422                                                 
H 63.653768 50.560589 37.073839                                                 
H 54.528606 34.724654 42.858606                                                 
H 36.308339 34.832327 36.918364                                                 
H 36.372105 66.373608 36.998987                                                 
H 54.512646 66.478116 29.424348                                                 
H 27.304887 50.606051 29.537630                                                 
H 54.692517 34.985349 29.543452                                                 
Li 58.874458 60.099768 33.478016                                                
Li 30.350474 43.495750 46.646390                                                
Li 44.009548 34.122716 33.006593                                                
Li 46.840405 66.949031 46.788122                                                
Li 60.313952 43.730407 46.365228                                                
Li 31.907217 60.186222 33.103345                                                
Li 51.381886 64.662285 33.442650                                                
Li 39.782412 65.063949 33.133094                                                
Li 60.519181 52.699427 46.349369                                                
Li 30.078610 52.702837 46.677911                                                
Li 35.513301 38.697710 46.288009                                                
Li 55.365398 38.511389 46.664663                                                
Li 36.122612 38.338053 33.054984                                                
Li 50.676558 36.161889 33.434437                                                
Li 39.966430 36.149231 46.348232                                                
Li 50.878763 35.928579 46.611377                                                
Li 54.780671 62.706268 46.697365                                                
Li 39.791508 64.678701 46.376032                                                
Li 30.335626 53.262385 33.443919                                                
Li 30.290873 48.036068 33.414706                                                
Li 32.082572 59.936119 46.393084                                                
Li 60.746451 53.329577 33.198036                                                
Li 55.077526 38.667196 33.482942                                                
Li 60.981286 48.124250 33.166907                                                
Li 46.626784 67.200219 33.403153                                                
Li 59.301338 59.878214 46.752483                                                
Li 31.615115 41.162381 33.005620                                                
Li 44.988699 33.352632 46.460660                                                
Li 59.647850 40.943846 33.509596                                                
Li 35.244360 64.239720 39.743640                                                
%ENDBLOCK POSITIONS_ABS                                                         

--------------------------------------------------------------------------------
-------------------------------- END INPUT FILE --------------------------------
--------------------------------------------------------------------------------


 
<<<<<<<<<<<<<<<<<<<<<<<<<<<<<<<<< Full system >>>>>>>>>>>>>>>>>>>>>>>>>>>>>>>>>>
<<<<<<<<<<<<<<<<<<<<<<<<<<< PAW Dataset information >>>>>>>>>>>>>>>>>>>>>>>>>>>
File: ~/pp/paw/c_pbe_abinit.paw; rc = 1.25 bohr; shape type =  3; rshape = 1.25 bohr;
  Atomic number:  6;  ionic charge:  4.000000
    Partial Wave 1: l = 0
    Partial Wave 2: l = 0
    Partial Wave 3: l = 1
    Partial Wave 4: l = 1
  Core charge supplied for Nonlinear Core Corrections
File: ~/pp/paw/h_pbe_abinit.paw; rc = 0.90 bohr; shape type =  3; rshape = 0.90 bohr;
  Atomic number:  1;  ionic charge:  1.000000
    Partial Wave 1: l = 0
    Partial Wave 2: l = 0
File: ~/pp/paw/li_pbe_abinit.paw; rc = 1.42 bohr; shape type =  3; rshape = 1.42 bohr;
  Atomic number:  3;  ionic charge:  3.000000
    Partial Wave 1: l = 0
    Partial Wave 2: l = 0
    Partial Wave 3: l = 0
    Partial Wave 4: l = 1
    Partial Wave 5: l = 1
<<<<<<<<<<<<<<<<<<<<<<<<<<<<<<<<<<<<<<< >>>>>>>>>>>>>>>>>>>>>>>>>>>>>>>>>>>>>>>

-------------------------- Atom counting information ---------------------------
Symbol    Natoms    Nngwfs    Nprojs
  C        484      1936      3872
  H        108       108       216
  Li        30       150       270
.......   ......    ......    ......
Totals:    622      2194      4358
--------------------------------------------------------------------------------

=============================== PSINC grid sizes ===============================
                      Simulation cell:  189 x 189 x 189
                              FFT-box:  117 x 117 x 117
                                  PPD:    7 x   7 x   1
Grid space d1=  0.499927596032a0 (KE cutoff=  30.39413Eh = 827.06648eV)
Grid space d2=  0.499927596032a0 (KE cutoff=  30.39413Eh = 827.06648eV)
Grid space d3=  0.499927596032a0 (KE cutoff=  30.39413Eh = 827.06648eV)
================================================================================
  
WARNING in cell_grid_distribute:
Average of less than one 23-slab per node, so workload cannot be
equally balanced between nodes.

********************* Fourier parallelisation information **********************
       Coarse grid (whole simulation cell) dimensions:    189   189   189
          Real-space ('12') slabs/node (min max mean):      1     2     1
         Recip-space ('23') slabs/node (min max mean):      0     1     0
********************************************************************************

********************* Fourier parallelisation information **********************
       Double grid (whole simulation cell) dimensions:    378   378   378
          Real-space ('12') slabs/node (min max mean):      2     3     2
         Recip-space ('23') slabs/node (min max mean):      1     2     1
********************************************************************************

Atom SCF Calculation for C  : Z (AE atom) =   6 : Z (PS atom) =   4
Config String: 2s2 2p2
Orbitals (num,occ):  2     2.00 2.00
Orbitals   (num,l):  2        0    1
Real-space Grid (nr,dr,rmax): 1377    0.0065406977    9.0000000000
Spherical Bessel Basis (nsws,lmax,cutoff):   37    2  183.0099912382
Confining potential (l,width,scale):  0    3.0000000000  100.0000000000
Confining potential (l,width,scale):  1    3.0000000000  100.0000000000
  1         -5.4350126632   -1.2715272878    4.5135247139   -1.5681949477
  2         -5.3876836850   -1.3562195125    4.4235426751   -1.5380057521
  3         -5.3928844498   -1.3758175853    4.4021699684   -1.5318377811
  4         -5.3988962903   -1.3800385428    4.3975423583   -1.5307324410
  5         -5.4018428823   -1.3823489590    4.3950111904   -1.5301555648
  6         -5.4033571720   -1.3835805046    4.3936635548   -1.5298576834
  7         -5.4041480647   -1.3842324820    4.3929512000   -1.5297032953
  8         -5.4045641108   -1.3845769138    4.3925755232   -1.5296229456
  9         -5.4047838258   -1.3847587737    4.3923775340   -1.5295810042
 10         -5.4049001347   -1.3848548089    4.3922731819   -1.5295590658
 11         -5.4049618018   -1.3849055476    4.3922181562   -1.5295475724
 12         -5.4049945351   -1.3849323732    4.3921891206   -1.5295415432
 13         -5.4050119258   -1.3849465673    4.3921737867   -1.5295383767
 14         -5.4050211723   -1.3849540841    4.3921656816   -1.5295367119
 15         -5.4050260920   -1.3849580684    4.3921613935   -1.5295358358
 16         -5.4050287113   -1.3849601822    4.3921591228   -1.5295353742
 17         -5.4050301068   -1.3849613045    4.3921579192   -1.5295351307
 18         -5.4050308507   -1.3849619010    4.3921572806   -1.5295350022
 19         -5.4050312476   -1.3849622183    4.3921569415   -1.5295349343
 20         -5.4050314594   -1.3849623873    4.3921567612   -1.5295348984
 21         -5.4050315725   -1.3849624773    4.3921566653   -1.5295348794
 22         -5.4050316330   -1.3849625253    4.3921566143   -1.5295348693
Atom SCF converged after  22 iterations to a total energy of     -5.40503163

Atom SCF Calculation for H  : Z (AE atom) =   1 : Z (PS atom) =   1
Config String: 1s1
Orbitals (num,occ):  1     1.00
Orbitals   (num,l):  1        0
Real-space Grid (nr,dr,rmax): 1377    0.0065406977    9.0000000000
Spherical Bessel Basis (nsws,lmax,cutoff):   37    1  183.0099912382
Confining potential (l,width,scale):  0    3.0000000000  100.0000000000
  1         -0.3605254152   -0.2399954029    0.2820952946   -0.2424203210
  2         -0.4156854077   -0.2398249290    0.2871789324   -0.2464796203
  3         -0.4412552402   -0.2379720642    0.2899127187   -0.2499011370
  4         -0.4517265951   -0.2371980236    0.2908966173   -0.2514141636
  5         -0.4557775773   -0.2369735141    0.2911607883   -0.2519713623
  6         -0.4573363459   -0.2369240355    0.2912108681   -0.2521663171
  7         -0.4579443228   -0.2369187864    0.2912112833   -0.2522344454
  8         -0.4581858602   -0.2369215483    0.2912049187   -0.2522587615
  9         -0.4582834939   -0.2369242589    0.2912002081   -0.2522677042
 10         -0.4583235236   -0.2369258837    0.2911975892   -0.2522710965
 11         -0.4583401154   -0.2369267223    0.2911962825   -0.2522724192
 12         -0.4583470483   -0.2369271266    0.2911956643   -0.2522729467
 13         -0.4583499624   -0.2369273145    0.2911953803   -0.2522731607
 14         -0.4583511926   -0.2369274000    0.2911952521   -0.2522732486
 15         -0.4583517136   -0.2369274385    0.2911951948   -0.2522732850
 16         -0.4583519349   -0.2369274556    0.2911951693   -0.2522733002
 17         -0.4583520290   -0.2369274632    0.2911951581   -0.2522733066
Atom SCF converged after  17 iterations to a total energy of     -0.45835203

Atom SCF Calculation for Li : Z (AE atom) =   3 : Z (PS atom) =   3
Config String: 1s2 2s1 2p0
Orbitals (num,occ):  3     2.00 1.00 0.00
Orbitals   (num,l):  3        0    0    1
Real-space Grid (nr,dr,rmax): 1377    0.0065406977    9.0000000000
Spherical Bessel Basis (nsws,lmax,cutoff):   37    2  183.0099912382
Confining potential (l,width,scale):  0    3.0000000000  100.0000000000
Confining potential (l,width,scale):  1    3.0000000000  100.0000000000
  1         -6.0640888065   -4.6655401716    2.5388576516   -0.9989538799
  2         -6.9627542978   -4.0954079129    2.9808988108   -1.1965571426
  3         -7.2692687601   -3.8889996707    3.2029735703   -1.3193883705
  4         -7.3784440298   -3.8322099748    3.2868571989   -1.3711018151
  5         -7.4170278248   -3.8191968371    3.3144974220   -1.3911175539
  6         -7.4303549880   -3.8172386945    3.3228486489   -1.3986896266
  7         -7.4348052089   -3.8175483495    3.3251259310   -1.4015352495
  8         -7.4362242328   -3.8180607346    3.3256233205   -1.4026016384
  9         -7.4366459715   -3.8184145665    3.3256561549   -1.4029998726
 10         -7.4367560626   -3.8186169740    3.3256001574   -1.4031477379
 11         -7.4367765260   -3.8187239825    3.3255481763   -1.4032021548
 12         -7.4367751741   -3.8187782620    3.3255144587   -1.4032219192
 13         -7.4367707398   -3.8188051288    3.3254952336   -1.4032289600
 14         -7.4367680349   -3.8188156035    3.3254870176   -1.4032309087
 15         -7.4367661982   -3.8188217406    3.3254819951   -1.4032318132
 16         -7.4367650112   -3.8188253257    3.3254789583   -1.4032322224
 17         -7.4367642682   -3.8188274151    3.3254771375   -1.4032324006
 18         -7.4367638134   -3.8188286307    3.3254760529   -1.4032324736
 19         -7.4367635392   -3.8188293370    3.3254754103   -1.4032325004
 20         -7.4367633760   -3.8188297469    3.3254750310   -1.4032325080
 21         -7.4367632796   -3.8188299846    3.3254748079   -1.4032325082
Atom SCF converged after  21 iterations to a total energy of     -7.43676328

Determining parallel strategy ...
... using space-filling curve
... NGWF load balancing: max     16;  min     12;  average     14
... Projector load balancing: max     32;  min     24;  average     27
... done
Calculating Ewald energy ...
              Ewald: real-space energy =   36239.771787
        Ewald: reciprocal-space energy =   35669.501615
         Ewald: (sum_charge)**2 Energy =    2823.101276
         Ewald: (sum_charge**2) Energy =     251.145732
                          Ewald Energy =   68835.026395
======================= Empirical dispersion information =======================
Model : Grimme D2
Dispersion Correction Energy: -0.22406322E+01 Hartree
================================================================================
Basis initialisation ...... NGWF spheres initialised
... Projector spheres initialised
... NGWF tight boxes initialised
... Projector tight boxes initialised
... Tight-boxes gathered
... NGWF basis size (local,global):     278694  44252206
... PAW projector initialisation
... done

============================= Charge Augmentation ==============================
                           Aug box size:   13 x  13 x  13
================================================================================

========================== Sparse matrix information ===========================
                        Overlap matrix filling:  37.57%
                        Density kernel filling: 100.00%
              NGWF-Proj overlap matrix filling:  10.55%
                    Aug Overlap matrix filling:  41.78%
                    Hamiltonian matrix filling:  41.78%
                  NGWF diagonal matrix filling:   0.18%
                             KS matrix filling: 100.00% 
                           KSKS matrix filling: 100.00% 
================================================================================

Sparse matrix initialisation ... done
NGWF initialisation ...... done
============ Calculation of NGWF S^-1 using Hotelling algorithm ================ 
         Iteration  |  Frobenius norm and Maximum abs value    (of I-S*S_n^-1)   
               1       0.46511967E+02     0.99637228E+00
               2       0.46201858E+02     0.99276946E+00
               3       0.45630164E+02     0.98563581E+00
               4       0.44647678E+02     0.97163964E+00
               5       0.43136051E+02     0.94461955E+00
               6       0.41100366E+02     0.89382980E+00
               7       0.38610685E+02     0.80239348E+00
               8       0.35714699E+02     0.78261582E+00
               9       0.32627664E+02     0.75988916E+00
              10       0.29634620E+02     0.73844463E+00
              11       0.26493017E+02     0.71928294E+00
              12       0.22546905E+02     0.69186771E+00
              13       0.17389407E+02     0.65817868E+00
              14       0.11324462E+02     0.60294659E+00
              15       0.58882319E+01     0.51267313E+00
              16       0.29012002E+01     0.40569474E+00
              17       0.18333450E+01     0.31212666E+00
              18       0.10793961E+01     0.18664578E+00
              19       0.43712281E+00     0.84628555E-01
              20       0.92390680E-01     0.23305467E-01
              21       0.60743728E-02     0.17777375E-02
              22       0.34323265E-04     0.10396158E-04
              23       0.11729077E-08     0.35602721E-09
              24       0.54821050E-13     0.53290705E-14
================================================================================
Calculating core density ...
================================= Core Density =================================
               Core den box size:   21 x  21 x  21
================================================================================
 ... done
Up spin density kernel initialisation ...... done
Down spin density kernel initialisation ...... done

Writing density kernel to file "30/592nano.dkn" ... done

>>> Optimising kernel for current NGWFs:

--------------------------- Ensemble-DFT optimisation --------------------------
Running ScaLAPACK on  160 processor(s).

--------------------------------------------------------------------------------
  Iter                              Commutator    Free_energy(A=E-TS)     DeltaA
#    0                          0.001194975777   -3042.57820349860413  -3.04E+03

Step                       =       0.381966011250
Energy                     =   -3042.557336115273
Entropy (-TS)              =      -0.020867383321
Free energy (A=E-TS)       =   -3042.578203498604
Est. 0K Energy 0.5*(E+A)   =   -3042.567769806938
Residual Non-orthogonality =       0.000000000000
Residual N_electrons       =      -0.000000000010

Spin          Integrated_Ne            Fermi_level     Delta_Fermi_level
   1      1066.999999999978        -0.236675905691             -2.37E-01
   2      1066.999999999978        -0.236675905691             -2.37E-01

                           Spin 1           |                 Spin 2           |
     Orb |    H-eigenvalues     Occupancies |    H-eigenvalues     Occupancies |
       1 |    -1.9115538481    1.0000000000 |    -1.9115538481    1.0000000000 | 
                          ------                             ------
    1063 |    -0.2545950254    0.9965240682 |    -0.2545950254    0.9965240682 | 
    1064 |    -0.2531980570    0.9946071990 |    -0.2531980570    0.9946071990 | 
    1065 |    -0.2489830706    0.9798914260 |    -0.2489830706    0.9798914260 | 
    1066 |    -0.2442564801    0.9163499405 |    -0.2442564801    0.9163499405 | 
    1067 |    -0.2356485483    0.4196004425 |    -0.2356485483    0.4196004425 | 
                 - Gap at zero temperature - |     - Gap at zero temperature -
    1068 |    -0.2343751898    0.3259613448 |    -0.2343751898    0.3259613448 | 
    1069 |    -0.2300681513    0.1104096135 |    -0.2300681513    0.1104096135 | 
    1070 |    -0.2288301796    0.0774517533 |    -0.2288301796    0.0774517533 | 
    1071 |    -0.2268287708    0.0427179284 |    -0.2268287708    0.0427179284 | 
    1072 |    -0.2266966818    0.0410444225 |    -0.2266966818    0.0410444225 | 
                          ------                             ------
    2194 |     0.5596729782    0.0000000000 |     0.5596729782    0.0000000000 | 

                       |  Abs_value |  Threshold | Converged
     Delta_Free_energy |   3.04E+03 |   1.00E-06 |        No
     Delta_Energy      |   3.04E+03 |   1.00E-04 |        No
     Delta_Entropy     |   2.09E-02 |   1.00E-04 |        No
     Commutator        |   1.19E-03 |   1.00E-05 |        No
     Delta_Fermi_level |   2.37E-01 |   1.00E-03 |        No

  Line search of the free energy minimum:
  Step_type        Step             Free_energy   Predicted_free_energy
.   Initial    0.000000    -3042.57820349860413
.    Trial1    0.381966    -3043.27386113856619
.    Trial2    0.618034    -3040.89944505438734
. Quadratic    0.238359    -3043.53886606794094    -3043.67026312613007

--------------------------------------------------------------------------------
  Iter                              Commutator    Free_energy(A=E-TS)     DeltaA
#    1                          0.000637930471   -3043.53886606794094  -9.61E-01

Step                       =       0.238358866553
Energy                     =   -3043.508864250080
Entropy (-TS)              =      -0.030001817596
Free energy (A=E-TS)       =   -3043.538866067941
Est. 0K Energy 0.5*(E+A)   =   -3043.523865159010
Residual Non-orthogonality =       0.000000000000
Residual N_electrons       =      -0.000000000265

Spin          Integrated_Ne            Fermi_level     Delta_Fermi_level
   1      1066.999999999572        -0.220994289341              1.57E-02
   2      1066.999999999227        -0.220994289124              1.57E-02

                           Spin 1           |                 Spin 2           |
     Orb |    H-eigenvalues     Occupancies |    H-eigenvalues     Occupancies |
       1 |    -1.9248531020    1.0000000000 |    -1.9248531020    1.0000000000 | 
                          ------                             ------
    1063 |    -0.2317682337    0.9677714331 |    -0.2317682338    0.9677714358 | 
    1064 |    -0.2300947058    0.9465301238 |    -0.2300947059    0.9465301282 | 
    1065 |    -0.2286392303    0.9178948061 |    -0.2286392298    0.9178947988 | 
    1066 |    -0.2261111566    0.8342121747 |    -0.2261111561    0.8342121614 | 
    1067 |    -0.2203429329    0.4487599876 |    -0.2203429324    0.4487599645 | 
                 - Gap at zero temperature - |     - Gap at zero temperature -
    1068 |    -0.2181890248    0.2919706007 |    -0.2181890243    0.2919705815 | 
    1069 |    -0.2161977906    0.1802559199 |    -0.2161977910    0.1802559474 | 
    1070 |    -0.2153004797    0.1420992130 |    -0.2153004801    0.1420992358 | 
[...]
 C    35 -- C    41       -0.09      0.00      5.41368
 C   327 -- C   333       -0.09      0.00      5.41377
 C   205 -- C   263       -0.09      0.00      5.41399
 C    82 -- C   492       -0.09      0.00      5.41400
 C   431 -- C   441       -0.09      0.00      5.41408
 C   242 -- C   328       -0.09      0.00      5.41426
 C   358 -- C   388       -0.09     -0.00      5.41433
 C   430 -- C   480       -0.08      0.00      5.41483
 C   252 -- C   286       -0.08      0.00      5.41526
 C   188 -- C   286       -0.08     -0.00      5.41558
 C    77 -- C    91       -0.08      0.00      5.41562
 C    96 -- C   126       -0.09     -0.00      5.41610
 C   220 -- C   238       -0.08      0.00      5.41620
 C   293 -- C   421       -0.09      0.00      5.41634
 C   105 -- C   477       -0.09      0.00      5.41657
 C    74 -- C   488       -0.09      0.00      5.41657
 C    80 -- C   538       -0.08      0.00      5.41665
 C    62 -- C   368       -0.09      0.00      5.41671
 C   260 -- C   420       -0.09      0.00      5.41703
 C    67 -- C   511       -0.09     -0.00      5.41711
 C   262 -- C   460       -0.09      0.00      5.41725
 C    99 -- C   121       -0.09      0.00      5.41778
 C    75 -- C   463       -0.09     -0.00      5.41833
 C   293 -- C   295       -0.08      0.00      5.41852
 C    73 -- C    79       -0.09     -0.00      5.41852
 C   186 -- C   212       -0.08      0.00      5.41872
 C    87 -- C    93       -0.08      0.00      5.41923
 C    88 -- C   560       -0.08      0.00      5.41956
 C   377 -- C   391       -0.08      0.00      5.42084
 C    56 -- C   342       -0.09      0.00      5.42148
 C   183 -- C   237       -0.08      0.00      5.42148
 C   224 -- C   242       -0.08      0.00      5.42341
 C   262 -- C   292       -0.08      0.00      5.42351
 C   182 -- C   188       -0.09      0.00      5.42408
 C   332 -- C   388       -0.08     -0.00      5.42426
 C   186 -- C   192       -0.09      0.00      5.42429
 C   252 -- C   406       -0.09     -0.00      5.42473
 C   477 -- C   485       -0.08     -0.00      5.42496
 C   231 -- C   241       -0.08      0.00      5.42522
 C    71 -- C   516       -0.09      0.00      5.42540
 C   230 -- C   318       -0.09      0.00      5.42617
 C    83 -- C   467       -0.09      0.00      5.42704
 C    69 -- C    95       -0.09      0.00      5.42712
 C   189 -- C   255       -0.08      0.00      5.42783
 C   333 -- C   365       -0.08     -0.00      5.42787
 C    36 -- C    98       -0.08      0.00      5.42839
 C   481 -- C   489       -0.08     -0.00      5.42860
 C   103 -- C   525       -0.08      0.00      5.43093
 C   234 -- C   332       -0.09      0.00      5.43119
 C    51 -- C   521       -0.08      0.00      5.43128
 C   319 -- C   361       -0.08      0.00      5.43226
 C   197 -- C   199       -0.09      0.00      5.43249
 C    35 -- C   497       -0.08     -0.00      5.43289
 C   285 -- C   287       -0.08      0.00      5.43304
 C    34 -- C   100       -0.08      0.00      5.43355
 H   587 -- Li  604       -0.02      0.00      5.43375
 C   338 -- C   380       -0.07      0.00      5.43384
 C   385 -- C   395       -0.08      0.00      5.43391
 C   202 -- C   216       -0.08      0.00      5.43456
 C   253 -- C   413       -0.08      0.00      5.43617
 C   227 -- C   309       -0.08      0.00      5.43632
 C    99 -- C   521       -0.08      0.00      5.43657
 C   185 -- C   235       -0.08      0.00      5.43777
 C   254 -- C   284       -0.08      0.00      5.43817
 C   343 -- C   506       -0.08      0.00      5.43827
 C   198 -- C   204       -0.08      0.00      5.43838
 C    68 -- C   556       -0.08     -0.00      5.43864
 C   190 -- C   284       -0.08      0.00      5.44051
 C   368 -- C   394       -0.08     -0.00      5.44116
 C   330 -- C   394       -0.08     -0.00      5.44119
 C    96 -- C   567       -0.08      0.00      5.44167
 C    76 -- C   564       -0.07      0.00      5.44196
 C   470 -- C   547       -0.08     -0.00      5.44219
 C   316 -- C   390       -0.08     -0.00      5.44508
 C   201 -- C   239       -0.08      0.00      5.44698
 C   231 -- C   323       -0.08     -0.00      5.44750
 C   261 -- C   427       -0.08      0.00      5.44843
 C   181 -- C   183       -0.08     -0.00      5.44889
 C    52 -- C   338       -0.08     -0.00      5.45013
 C   423 -- Li  622       -0.08      0.00      5.45120
 C   233 -- C   239       -0.07      0.00      5.45181
 H   162 -- Li  612       -0.03      0.00      5.45227
 C   364 -- C   390       -0.07     -0.00      5.45314
 C    72 -- C   560       -0.08      0.00      5.45471
 C   466 -- C   538       -0.08     -0.00      5.45556
 H   370 -- Li  621       -0.02     -0.00      5.46427
 H   581 -- Li  601       -0.03      0.00      5.46525
 H   582 -- Li  607       -0.02     -0.00      5.49030
 H   496 -- Li  621       -0.02     -0.00      5.49210
 H   561 -- Li  609       -0.02      0.00      5.49811
 H   412 -- Li  598       -0.03      0.00      5.51024
 H   165 -- Li  594       -0.02     -0.00      5.52153
 H   141 -- Li  605       -0.02     -0.00      5.52225
 H   591 -- Li  612       -0.02     -0.00      5.52744
 H   583 -- Li  610       -0.02      0.00      5.53244
 H   370 -- Li  615       -0.01      0.00      5.54398
 C    91 -- Li  599       -0.06      0.00      5.55507
 C   488 -- Li  622       -0.06     -0.00      5.55610
 H   474 -- Li  610       -0.02     -0.00      5.56106
 H   509 -- Li  597       -0.02      0.00      5.56499
 H   426 -- Li  613       -0.02     -0.00      5.56557
 H   141 -- Li  619       -0.02      0.00      5.56709
 H   154 -- Li  607       -0.02     -0.00      5.57680
 H   548 -- Li  596       -0.02      0.00      5.57946
 H   586 -- Li  614       -0.01      0.00      5.58047
 H   151 -- Li  595       -0.02      0.00      5.58772
 H   401 -- Li  598       -0.02     -0.00      5.58874
 H   135 -- Li  595       -0.02      0.00      5.60152
 H   544 -- Li  596       -0.02      0.00      5.60966
 H   591 -- Li  611       -0.02      0.00      5.61254
 H   519 -- Li  601       -0.02      0.00      5.62144
 H   131 -- Li  594       -0.02      0.00      5.62417
 C   440 -- Li  622       -0.07      0.00      5.63072
 C   330 -- Li  620       -0.04      0.00      5.63093
 H   524 -- Li  616       -0.02      0.00      5.64267
 H   397 -- Li  621       -0.02     -0.00      5.64378
 H   561 -- Li  618       -0.01      0.00      5.65006
 H   582 -- Li  603       -0.01      0.00      5.66514
=============================================================


============== Orbital energy and occupancy information for spin 1 =============

      Total number of orbitals:    2194
        Occupancy sum (kernel):    1067.000000005
   Occupancy sum (eigenvalues):    1067.000000005
                 HOMO-LUMO gap:       0.003588640 Eh
                 Mid-gap level:      -0.082659205 Eh

                        Orbital | Energy (Eh) | Occupancy
                            1    -1.846460051   1.0000000
                        .......   ...........   .........
                         1059    -0.103065116   0.9948684
                         1060    -0.101505035   0.9916658
                         1061    -0.100845141   0.9897811
                         1062    -0.100303066   0.9878469
                         1063    -0.097651677   0.9723916
                         1064    -0.095354039   0.9445559
                         1065    -0.095240087   0.9426610
                         1066    -0.090388492   0.7798754
                         1067    -0.086132470   0.4799287
                         1068    -0.084453525   0.3515867
                        ....... -- gap at 0K -- .........
                         1069    -0.080864885   0.1487798
                         1070    -0.079900082   0.1141944
                         1071    -0.078652735   0.0798297
                         1072    -0.077526783   0.0574431
                         1073    -0.077271095   0.0532255
                         1074    -0.076961532   0.0484965
                         1075    -0.075763611   0.0336784
                         1076    -0.073043190   0.0145199
                         1077    -0.071552229   0.0090891
                         1078    -0.071256367   0.0083230
                        .......   ...........   .........
                         2194     0.771879762   0.0000000

================================================================================

============== Orbital energy and occupancy information for spin 2 =============

      Total number of orbitals:    2194
        Occupancy sum (kernel):    1066.999999997
   Occupancy sum (eigenvalues):    1066.999999997
                 HOMO-LUMO gap:       0.001678946 Eh
                 Mid-gap level:      -0.085292997 Eh

                        Orbital | Energy (Eh) | Occupancy
                            1    -1.846460051   1.0000000
                        .......   ...........   .........
                         1058    -0.103673769   0.9957807
                         1059    -0.103065116   0.9948684
                         1060    -0.101505036   0.9916658
                         1061    -0.100845141   0.9897811
                         1062    -0.100303067   0.9878469
                         1063    -0.097651677   0.9723916
                         1064    -0.095354040   0.9445559
                         1065    -0.095240087   0.9426610
                         1066    -0.090388492   0.7798754
                         1067    -0.086132470   0.4799287
                        ....... -- gap at 0K -- .........
                         1068    -0.084453524   0.3515867
                         1069    -0.080864885   0.1487798
                         1070    -0.079900082   0.1141944
                         1071    -0.078652735   0.0798297
                         1072    -0.077526783   0.0574431
                         1073    -0.077271095   0.0532255
                         1074    -0.076961532   0.0484965
                         1075    -0.075763611   0.0336784
                         1076    -0.073043190   0.0145199
                         1077    -0.071552229   0.0090891
                        .......   ...........   .........
                         2194     0.771879763   0.0000000

================================================================================

===================== Writing canonical molecular orbitals =====================
    Spin 1
| Orbital  Energy (eV)  Norm     |
| HOMO     -2.29809734  1.000000 | Writing "30/592nano_HOMO_UP.cube" ... done
Writing "30/592nano_HOMO_UP.dx" ... done
| LUMO     -2.20044547  1.000000 | Writing "30/592nano_LUMO_UP.cube" ... done
Writing "30/592nano_LUMO_UP.dx" ... done
================================================================================

===================== Writing canonical molecular orbitals =====================
    Spin 2
| Orbital  Energy (eV)  Norm     |
| HOMO     -2.34378378  1.000000 | Writing "30/592nano_HOMO_DN.cube" ... done
Writing "30/592nano_HOMO_DN.dx" ... done
| LUMO     -2.29809732  1.000000 | Writing "30/592nano_LUMO_DN.cube" ... done
Writing "30/592nano_LUMO_DN.dx" ... done
================================================================================

================== Local Density of States (LDOS) calculation ==================
Writing "30/592nano_UP_LDOS.txt" ...  done
================================================================================

================== Local Density of States (LDOS) calculation ==================
Writing "30/592nano_DN_LDOS.txt" ...  done
================================================================================
 
=============== Density of States (DOS) calculation for UP spin ================
Writing "30/592nano_UP_DOS.txt" ...  done
================================================================================
 
============== Density of States (DOS) calculation for DOWN spin ===============
Writing "30/592nano_DN_DOS.txt" ...  done
================================================================================
 
Writing bands to file "30/592nano.val_bands" ... done
 
================ Projected Density of States (pDOS) calculation ================
 
Constructing AM resolved functions  ...... done
Writing NGWF plot files in formats: CUBE DX ...  done
 
Performing overlap integrals ...  done
 
Computing pDOS weights ...  done
 
All bands spilling parameter =   3.11 %
Occupancy-weighted spilling parameter =   0.89 %
 
 => Outputting data for OptaDOS <=
 
Writing pDOS weights to file "30/592nano.val_pdos_bin" ... done
 
Writing band gradients to file "30/592nano.val_dome_bin" ... done
 
Writing Castep output cell file to "30/592nano-out.cell" ... done
 
 => Computing Gaussian smeared pDOS for UP spin<= 
Writing "30/592nano_UP_PDOS.txt" ...  done
 
 => Computing Gaussian smeared pDOS for DOWN spin<= 
Writing "30/592nano_DN_PDOS.txt" ...  done
 
 => Computing Occupancy-weighted Gaussian smeared pDOS for UP spin<= 
Writing "30/592nano_occ_UP_PDOS.txt" ...  done
  => Band centres for UP spin channel: 
 S band centre of group 1:  -17.561899 eV
 P band centre of group 1:   -8.149451 eV
  Band centres for UP spin channel done. <= 
  => Integrated number of electrons in each AM band for UP spin channel: 
 S num electrons of group 1:  294.887755
 P num electrons of group 1:  762.646830
  Integrated number of electrons for UP spin channel done. <= 
 
 => Computing Occupancy-weighted Gaussian smeared pDOS for DOWN spin<= 
Writing "30/592nano_occ_DN_PDOS.txt" ...  done
  => Band centres for DOWN spin channel: 
 S band centre of group 1:  -17.561899 eV
 P band centre of group 1:   -8.149451 eV
  Band centres for DOWN spin channel done. <=
  => Integrated number of electrons in each AM band for DOWN spin channel: 
 S num electrons of group 1:  294.887755
 P num electrons of group 1:  762.646830
  Integrated number of electrons for DOWN spin channel done. <=
================================================================================

------------------------------ TIMING INFORMATION ------------------------------
AVERAGE TIME:   14648.989s on    160 node(s)                                    
TOTAL TIME:     14649.000s on    160 node(s)                                    
================= AVERAGE TIMINGS FROM ALL NODES (CUMULATIVE) ==================
|| TAG                                    #calls    cpu time   %total  Gflops ||
|| work_imbalance                       :     1        0.00s   0.000%  ------ ||
|| paw_tcore_density                    :     1        0.01s   0.000%  ------ ||
|| sparse_set_to_garbage                :   219        0.01s   0.000%  ------ ||
|| paw_sphere_density_on_grid           :     1        0.01s   0.000%  ------ ||
|| basis_extract_function_from_box      :   356        0.02s   0.000%  ------ ||
|| paw_dij_hartree                      :   873        0.03s   0.000%  ------ ||
|| ngwfs_initialise_from_radial         :     2        0.04s   0.000%  ------ ||
|| ewald_calculate_energy               :     1        0.11s   0.001%  ------ ||
|| density_init_guess_real              :     1        0.30s   0.002%  ------ ||
|| paw_dataset_init                     :     3        0.33s   0.002%  ------ ||
|| paw_tcore_hartree_on_grid            :     1        0.36s   0.002%  ------ ||
|| pseudo_make_structure_factor         :     1        0.50s   0.003%  ------ ||
|| dense_normal_eigensolve              :     1        0.95s   0.006%  ------ ||
|| sparse_init                          :     1        1.01s   0.007%  ------ ||
|| restart_kernel_write                 :    14        1.81s   0.012%  ------ ||
|| paw_species_calc_proj_prec_mat       :     1        2.20s   0.015%  ------ ||
|| sparse_embed_hotelling_invert_embed  :    25        4.77s   0.033%  ------ ||
|| sw_init                              :     1        7.55s   0.052%  ------ ||
|| fourier_apply_box_pair               :   891       10.12s   0.069%  2.327k ||
|| ngwf_gradient_coeffs                 :    13       12.39s   0.085%  ------ ||
|| augmentation_screen_dij              :   656       12.73s   0.087%  ------ ||
|| projectors_init_fftbox_recip         :    53       20.30s   0.139%  ------ ||
|| hartree_on_grid                      :   651       30.32s   0.207%  ------ ||
|| integrals_kinetic                    :    25       30.38s   0.207%  ------ ||
|| basis_copy_function_to_box           : 24353       32.07s   0.219%  ------ ||
|| function_ops_brappd_ketppd           :    52       35.18s   0.240%  ------ ||
|| projectors_func_ovlp_box             :    26       36.67s   0.250%  ------ ||
|| paw_dij_xc                           :   873       37.85s   0.258%  ------ ||
|| hamiltonian_energy_components        :     3       69.15s   0.472%  ------ ||
|| sparse_trace                         : 16300       84.94s   0.580%  ------ ||
|| aug_nonlocal_mat                     :   860       95.05s   0.649%  ------ ||
|| fourier_apply_cell_forward           :  5851      102.54s   0.700% 198.608 ||
|| eigenstates_pdos                     :     1      102.63s   0.701%  ------ ||
|| augmentation_density_on_grid         :   651      106.38s   0.726%  ------ ||
|| fourier_apply_cell_backward          :  5852      107.05s   0.731% 190.263 ||
|| basis_dot_function_with_box          : 5.200M     145.81s   0.995%  ------ ||
|| restart_ngwfs_tightbox_output        :    12      188.02s   1.284%  ------ ||
|| xc_energy_potential                  :   650      216.20s   1.476%  ------ ||
|| eigenstates_calculate                :     1      217.87s   1.487%  ------ ||
|| dense_eigensolve                     :  1244      352.13s   2.404%  ------ ||
|| sparse_product                       : 14074      354.08s   2.417%  ------ ||
|| integrals_locpot_mat_els_batch       :   433      492.05s   3.359%  ------ ||
|| basis_add_function_to_box            : 15.89M     518.82s   3.542%  ------ ||
|| projectors_gradient_batch            :    13      570.59s   3.895%  ------ ||
|| cell_grid_extract_box_real           : 13924      655.78s   4.477%  ------ ||
|| cell_grid_deposit_box_real           : 46961      682.97s   4.662%  ------ ||
|| projectors_grad_precond_batch        :    13      787.91s   5.379%  ------ ||
|| density_batch_row_sums               :   651     1247.88s   8.519%  ------ ||
|| density_fftbox_deposit_to_cell       : 20832     1263.43s   8.625%  ------ ||
|| edft_diag_ngwf_ham                   :  1242     1437.84s   9.815%  ------ ||
|| potential_apply_to_ngwf_batch        :   433     1506.06s  10.281%  ------ ||
|| ngwf_gradient_build_batch            :    13     1508.92s  10.301%  ------ ||
|| properties_calculate                 :     1     1591.33s  10.863%  ------ ||
|| ngwf_gradient_batch                  :    13     1635.41s  11.164%  ------ ||
|| fourier_apply_box                    : 77528     1653.78s  11.289%  4.060k ||
|| ngwf_gradient_lnv                    :    13     1656.61s  11.309%  ------ ||
|| density_fftbox_interpolate_multiply  : 20832     1891.87s  12.915%  ------ ||
|| integrals_locpot_dbl_grid            :   433     2013.62s  13.746%  ------ ||
|| edft_apply_smearing_operator         :   621     2421.73s  16.532%  ------ ||
|| density_batch_interp_deposit         :   651     3804.69s  25.972%  ------ ||
|| density_on_dbl_grid                  :   651     5159.84s  35.223%  ------ ||
|| hamiltonian_lhxc_calculate           :   646     5630.63s  38.437%  ------ ||
|| edft_calculate                       :    13    10267.73s  70.092%  ------ ||
|| ngwf_cg_optimise                     :     1    13038.09s  89.003%  ------ ||
|| total_time                           :     1    14648.99s 100.000%  ------ ||
================================================================================
Overhead of generating timer report: 
- 0 ms averaging over threads,
- 25 ms ensuring consistency across MPI ranks,
- 0 ms printing in order.

Job completed: 27-09-2020 12:04 (+0100)

