 +---------------------------------------------------------------+
 |                                                               |
 |        ####### #     # ####### ####### ####### ######         |
 |        #     # ##    # #          #    #       #     #        |
 |        #     # # #   # #          #    #       #     #        |
 |        #     # #  #  # #####      #    #####   ######         |
 |        #     # #   # # #          #    #       #              |
 |        #     # #    ## #          #    #       #              |
 |        ####### #     # #######    #    ####### #              |
 |                                                               |
 |        Linear-Scaling Ab Initio Total Energy Program          |
 |                                                               |
 |          Release for academic collaborators of ODG            |
 |                                             Version 5.3.2.12  |
 |                                                               |
 +---------------------------------------------------------------+
 |                                                               |
 |  Authors:                                                     |
 |  Jacek Dziedzic, Peter D. Haynes, Nicholas D. M. Hine,        |
 |  Arash. A. Mostofi, Mike C. Payne and Chris-Kriton Skylaris   |
 |                                                               |
 |  Contributors:                                                |
 |  J. Aarons, L. Andrinopoulos, P. W. Avraam, R. A. Bell,       |
 |  A. Bhandari, G. A. Bramley, R. J. Charlton, S. J. Clark,     |
 |  R. J. Clements, G. C. Constantinescu, F. Corsetti,           |
 |  N. Corsini, O. Dieguez, S. M. M. Dubois, K. K. B. Duff,      |
 |  J. M. Escartin, A. Greco, H. Helal, Q. O. Hill, L. P. Lee,   |
 |  J.-H. Li, E. B. Linscott, G. Moynihan, D. D. O`Regan,        |
 |  O. K. Okan, M. J. S. Phipps, C. J. Pickard,                  |
 |  J. C. A. Prentice, M. I. J. Probert, L. E. Ratcliff,         |
 |  M. Robinson, A. Ruiz Serrano, J. S. Spencer, E. W. Tait,     |
 |  G. Teobaldi, D. Turban, V. Vitale, K. A. Wilkinson,          |
 |  C. Weber, J. C. Womack, N. Yeung and T. J. Zuehlsdorff       |
 |                                                               |
 |                                   Copyright (c) 2004-2020     |
 |                                                               |
 |  Please cite:                                                 |
 |  "Introducing ONETEP: Linear-scaling density functional       |
 |   simulations on parallel computers".                         |
 |   C.-K. Skylaris, P. D. Haynes, A. A. Mostofi, M. C. Payne.   |
 |   J. Chem. Phys. 122 084119 (2005).                           |
 |                                                               |
 |          in all publications arising from your use of ONETEP. |
 |                                                               |
 +---------------------------------------------------------------+
 |                                                               |
 |   ONETEP is based on developments described in the following  |
 |   publications:                                               |
 |                                                               |
 |  "Nonorthogonal generalized Wannier function pseudopotential  |
 |   plane-wave method".                                         |
 |   C.-K. Skylaris, A. A. Mostofi, P. D. Haynes, O. Dieguez,    |
 |   M. C. Payne.                                                |
 |   Phys. Rev. B 66 035119 (2002).                              |
 |                                                               |
 |  "Preconditioned iterative minimization for linear-scaling    |
 |   electronic structure calculations".                         |
 |   A. A. Mostofi, P. D. Haynes, C.-K. Skylaris, M. C. Payne.   |
 |   J. Chem. Phys. 119(17), pp.8842-8848 (2003).                |
 |                                                               |
 |  "Total-energy calculations on a real space grid with         |
 |   localized functions and a plane-wave basis".                |
 |   A. A. Mostofi, C.-K. Skylaris, P. D. Haynes, M. C. Payne.   |
 |   Comput. Phys. Commun. 147, pp.788-802 (2002).               |
 |                                                               |
 |  "Accurate kinetic energy evaluation in electronic structure  |
 |   calculations with localized functions on real space grids"  |
 |   C.-K. Skylaris, A. A. Mostofi, P. D. Haynes, C. J. Pickard, |
 |   M. C. Payne.                                                |
 |   Comput. Phys. Commun. 140, pp.315-322 (2001).               |
 |                                                               |
 |  "Accurate ionic forces and geometry optimization in linear-  |
 |   scaling density-functional theory with local orbitals"      |
 |   N. D. M. Hine, M. Robinson, P. D. Haynes, C.-K. Skylaris,   |
 |   M. C. Payne, and A. A. Mostofi.                             |
 |   Phys. Rev. B 83 195102 (2011).                              |
 |                                                               |
 +---------------------------------------------------------------+

Job started: 21-02-2020 15:19 (-0000)
 
Reading parameters from file "3.085688_GO_manual_4x64graphite.dat" ...

WARNING: "cutoff_energy" not specified, but "psinc_spacing" specified.
         Using the latter to set the KE cutoff energy to  732.32021eV,
         thus *overriding* the default.

... done

If your calculation crashes here, before "Checking processes and threads..."
is displayed, then your stack size is insufficient.
If so, use "ulimit -s unlimited" at runtime.
You can disable this check with "check_stack_size F".

Checking processes and threads...
   Determining the default number of threads...
      No default threads set at compilation time: defaulting to 1.
      OpenMP library call suggests 4 threads.
      Hybrid MPI-OpenMP compilation detected.
      Number of MPI processes > 1.
      OMP_NUM_THREADS environment variable present and
      its value matches the one obtained from the OpenMP library call.
      Using this value as default.
      Default threads: 4
      Default applies to threads_max and threads_num_fftboxes.
      Settings in the input file override this default.
   ... done

   Running with 40 MPI processes.
   There are 10 MPI processes running on the same node as the root process.
   Each MPI process is using: 
               1 threads for simulation cell FFTs.
               1 threads for parallel FFT box operations.
               4 threads for loops over batched FFT box operations.
               4 threads in other parallel regions.
... done

Basic input checks...
Resetting ngwf_cg_rotate to TRUE for EDFT calculations
... done

Reading geometry and species blocks from file "3.085688_GO_manual_4x64graphite.dat" ...
    
  PSINC grid spacing along a1 set to   0.511215680000a0 from input file.
  PSINC grid spacing along a2 set to   0.531284090000a0 from input file.
  PSINC grid spacing along a3 set to   0.507053670000a0 from input file.
  PSINC grid spacing along a1 set to   0.511215680000a0 from input file.
  PSINC grid spacing along a2 set to   0.531284090000a0 from input file.
  PSINC grid spacing along a3 set to   0.507053670000a0 from input file.
  Number of PPD points along a3 set to 1.  This is 
  the default value, it may have been provided also in the input file.
... done
 Writing xyz coordinates to file "3.085688_GO_manual_4x64graphite.xyz" ... done


--------------------------------------------------------------------------------
---------------------------------- INPUT FILE ----------------------------------
--------------------------------------------------------------------------------

task : singlepoint                                                              
do_properties : true                                                            
dx_format T                                                                     
edft T                                                                          
output_detail VERBOSE                                                           
write_xyz T                                                                     
xc_functional AVV10S                                                            
PSINC_SPACING 0.51121568 0.53128409 0.50705367                                  
paw T                                                                           
pdos_max_l = 2                                                                  
dos_smear  0.1 eV                                                               
popn_calculate T                                                                
PDOS_PSEUDOATOMIC T                                                             
PDOS_REDUCE_SWS F                                                               
PDOS_CONSTRUCT_BASIS F                                                          
PDOS_LOWDIN T                                                                   
PDOS_ORTH_ATOM_BLOCKS F                                                         
PDOS_LCAO_OPTIMIZE F                                                            
pdos_optados_output T                                                           
homo_plot 0                                                                     
lumo_plot 0                                                                     
homo_dens_plot -1                                                               
lumo_dens_plot -1                                                               
%BLOCK SPECIES                                                                  
C C 6 4 9.0                                                                     
%ENDBLOCK SPECIES                                                               
%BLOCK SPECIES_POT                                                              
C "~/pp/paw/c_pbe_abinit.paw"                                                   
%ENDBLOCK SPECIES_POT                                                           
%BLOCK SPECIES_ATOMIC_SET                                                       
C "SOLVE conf=2s2 2p2"                                                          
%ENDBLOCK SPECIES_ATOMIC_SET                                                    
%BLOCK LATTICE_CART                                                             
32.21  0.00  0.00                                                               
0.00 18.59  0.00                                                                
0.00  0.00 58.31                                                                
%ENDBLOCK LATTICE_CART                                                          
%BLOCK POSITIONS_ABS                                                            
C  0.00  0.00  2.92                                                             
C  0.00  0.00 14.58                                                             
C  0.00  0.00 26.24                                                             
C  0.00  0.00 37.90                                                             
C  0.00  0.00 49.56                                                             
C  0.00  4.65  2.92                                                             
C  0.00  4.65 14.58                                                             
C  0.00  4.65 26.24                                                             
C  0.00  4.65 37.90                                                             
C  0.00  4.65 49.56                                                             
C  4.03  2.32  2.92                                                             
C  4.03  2.32 14.58                                                             
C  4.03  2.32 26.24                                                             
C  4.03  2.32 37.90                                                             
C  4.03  2.32 49.56                                                             
C  8.05  0.00  2.92                                                             
C  8.05  0.00 14.58                                                             
C  8.05  0.00 26.24                                                             
C  8.05  0.00 37.90                                                             
C  8.05  0.00 49.56                                                             
C  0.00  9.30  2.92                                                             
C  0.00  9.30 14.58                                                             
C  0.00  9.30 26.24                                                             
C  0.00  9.30 37.90                                                             
C  0.00  9.30 49.56                                                             
C  4.03  6.97  2.92                                                             
C  4.03  6.97 14.58                                                             
C  4.03  6.97 26.24                                                             
C  4.03  6.97 37.90                                                             
C  4.03  6.97 49.56                                                             
C  8.05  4.65  2.92                                                             
C  8.05  4.65 14.58                                                             
C  8.05  4.65 26.24                                                             
C  8.05  4.65 37.90                                                             
C  8.05  4.65 49.56                                                             
C 12.08  2.32  2.92                                                             
C 12.08  2.32 14.58                                                             
C 12.08  2.32 26.24                                                             
C 12.08  2.32 37.90                                                             
C 12.08  2.32 49.56                                                             
C 16.10  0.00  2.92                                                             
C 16.10  0.00 14.58                                                             
C 16.10  0.00 26.24                                                             
C 16.10  0.00 37.90                                                             
C 16.10  0.00 49.56                                                             
C  0.00 13.95  2.92                                                             
C  0.00 13.95 14.58                                                             
C  0.00 13.95 26.24                                                             
C  0.00 13.95 37.90                                                             
C  0.00 13.95 49.56                                                             
C  4.03 11.62  2.92                                                             
C  4.03 11.62 14.58                                                             
C  4.03 11.62 26.24                                                             
C  4.03 11.62 37.90                                                             
C  4.03 11.62 49.56                                                             
C  8.05  9.30  2.92                                                             
C  8.05  9.30 14.58                                                             
C  8.05  9.30 26.24                                                             
C  8.05  9.30 37.90                                                             
C  8.05  9.30 49.56                                                             
C 12.08  6.97  2.92                                                             
C 12.08  6.97 14.58                                                             
C 12.08  6.97 26.24                                                             
C 12.08  6.97 37.90                                                             
C 12.08  6.97 49.56                                                             
C 16.10  4.65  2.92                                                             
C 16.10  4.65 14.58                                                             
C 16.10  4.65 26.24                                                             
C 16.10  4.65 37.90                                                             
C 16.10  4.65 49.56                                                             
C 20.13  2.32  2.92                                                             
C 20.13  2.32 14.58                                                             
C 20.13  2.32 26.24                                                             
C 20.13  2.32 37.90                                                             
C 20.13  2.32 49.56                                                             
C 24.16  0.00  2.92                                                             
C 24.16  0.00 14.58                                                             
C 24.16  0.00 26.24                                                             
C 24.16  0.00 37.90                                                             
C 24.16  0.00 49.56                                                             
C  4.03 16.27  2.92                                                             
C  4.03 16.27 14.58                                                             
C  4.03 16.27 26.24                                                             
C  4.03 16.27 37.90                                                             
C  4.03 16.27 49.56                                                             
C  8.05 13.95  2.92                                                             
C  8.05 13.95 14.58                                                             
C  8.05 13.95 26.24                                                             
C  8.05 13.95 37.90                                                             
C  8.05 13.95 49.56                                                             
C 12.08 11.62  2.92                                                             
C 12.08 11.62 14.58                                                             
C 12.08 11.62 26.24                                                             
C 12.08 11.62 37.90                                                             
C 12.08 11.62 49.56                                                             
C 16.10  9.30  2.92                                                             
C 16.10  9.30 14.58                                                             
C 16.10  9.30 26.24                                                             
C 16.10  9.30 37.90                                                             
C 16.10  9.30 49.56                                                             
C 20.13  6.97  2.92                                                             
C 20.13  6.97 14.58                                                             
C 20.13  6.97 26.24                                                             
C 20.13  6.97 37.90                                                             
C 20.13  6.97 49.56                                                             
C 24.16  4.65  2.92                                                             
C 24.16  4.65 14.58                                                             
C 24.16  4.65 26.24                                                             
C 24.16  4.65 37.90                                                             
C 24.16  4.65 49.56                                                             
C 28.18  2.32  2.92                                                             
C 28.18  2.32 14.58                                                             
C 28.18  2.32 26.24                                                             
C 28.18  2.32 37.90                                                             
C 28.18  2.32 49.56                                                             
C 12.08 16.27  2.92                                                             
C 12.08 16.27 14.58                                                             
C 12.08 16.27 26.24                                                             
C 12.08 16.27 37.90                                                             
C 12.08 16.27 49.56                                                             
C 16.10 13.95  2.92                                                             
C 16.10 13.95 14.58                                                             
C 16.10 13.95 26.24                                                             
C 16.10 13.95 37.90                                                             
C 16.10 13.95 49.56                                                             
C 20.13 11.62  2.92                                                             
C 20.13 11.62 14.58                                                             
C 20.13 11.62 26.24                                                             
C 20.13 11.62 37.90                                                             
C 20.13 11.62 49.56                                                             
C 24.16  9.30  2.92                                                             
C 24.16  9.30 14.58                                                             
C 24.16  9.30 26.24                                                             
C 24.16  9.30 37.90                                                             
C 24.16  9.30 49.56                                                             
C 28.18  6.97  2.92                                                             
C 28.18  6.97 14.58                                                             
C 28.18  6.97 26.24                                                             
C 28.18  6.97 37.90                                                             
C 28.18  6.97 49.56                                                             
C 20.13 16.27  2.92                                                             
C 20.13 16.27 14.58                                                             
C 20.13 16.27 26.24                                                             
C 20.13 16.27 37.90                                                             
C 20.13 16.27 49.56                                                             
C 24.16 13.95  2.92                                                             
C 24.16 13.95 14.58                                                             
C 24.16 13.95 26.24                                                             
C 24.16 13.95 37.90                                                             
C 24.16 13.95 49.56                                                             
C 28.18 11.62  2.92                                                             
C 28.18 11.62 14.58                                                             
C 28.18 11.62 26.24                                                             
C 28.18 11.62 37.90                                                             
C 28.18 11.62 49.56                                                             
C 28.18 16.27  2.92                                                             
C 28.18 16.27 14.58                                                             
C 28.18 16.27 26.24                                                             
C 28.18 16.27 37.90                                                             
C 28.18 16.27 49.56                                                             
C  0.00  0.00  8.75                                                             
C  0.00  0.00 20.41                                                             
C  0.00  0.00 32.07                                                             
C  0.00  0.00 43.73                                                             
C  0.00  0.00 55.40                                                             
C  0.00  4.65  8.75                                                             
C  0.00  4.65 20.41                                                             
C  0.00  4.65 32.07                                                             
C  0.00  4.65 43.73                                                             
C  0.00  4.65 55.40                                                             
C  4.03  2.32  8.75                                                             
C  4.03  2.32 20.41                                                             
C  4.03  2.32 32.07                                                             
C  4.03  2.32 43.73                                                             
C  4.03  2.32 55.40                                                             
C  8.05  0.00  8.75                                                             
C  8.05  0.00 20.41                                                             
C  8.05  0.00 32.07                                                             
C  8.05  0.00 43.73                                                             
C  8.05  0.00 55.40                                                             
C  0.00  9.30  8.75                                                             
C  0.00  9.30 20.41                                                             
C  0.00  9.30 32.07                                                             
C  0.00  9.30 43.73                                                             
C  0.00  9.30 55.40                                                             
C  4.03  6.97  8.75                                                             
C  4.03  6.97 20.41                                                             
C  4.03  6.97 32.07                                                             
C  4.03  6.97 43.73                                                             
C  4.03  6.97 55.40                                                             
C  8.05  4.65  8.75                                                             
C  8.05  4.65 20.41                                                             
C  8.05  4.65 32.07                                                             
C  8.05  4.65 43.73                                                             
C  8.05  4.65 55.40                                                             
C 12.08  2.32  8.75                                                             
C 12.08  2.32 20.41                                                             
C 12.08  2.32 32.07                                                             
C 12.08  2.32 43.73                                                             
C 12.08  2.32 55.40                                                             
C 16.10  0.00  8.75                                                             
C 16.10  0.00 20.41                                                             
C 16.10  0.00 32.07                                                             
C 16.10  0.00 43.73                                                             
C 16.10  0.00 55.40                                                             
C  0.00 13.95  8.75                                                             
C  0.00 13.95 20.41                                                             
C  0.00 13.95 32.07                                                             
C  0.00 13.95 43.73                                                             
C  0.00 13.95 55.40                                                             
C  4.03 11.62  8.75                                                             
C  4.03 11.62 20.41                                                             
C  4.03 11.62 32.07                                                             
C  4.03 11.62 43.73                                                             
C  4.03 11.62 55.40                                                             
C  8.05  9.30  8.75                                                             
C  8.05  9.30 20.41                                                             
C  8.05  9.30 32.07                                                             
C  8.05  9.30 43.73                                                             
C  8.05  9.30 55.40                                                             
C 12.08  6.97  8.75                                                             
C 12.08  6.97 20.41                                                             
C 12.08  6.97 32.07                                                             
C 12.08  6.97 43.73                                                             
C 12.08  6.97 55.40                                                             
C 16.10  4.65  8.75                                                             
C 16.10  4.65 20.41                                                             
C 16.10  4.65 32.07                                                             
C 16.10  4.65 43.73                                                             
C 16.10  4.65 55.40                                                             
C 20.13  2.32  8.75                                                             
C 20.13  2.32 20.41                                                             
C 20.13  2.32 32.07                                                             
C 20.13  2.32 43.73                                                             
C 20.13  2.32 55.40                                                             
C 24.16  0.00  8.75                                                             
C 24.16  0.00 20.41                                                             
C 24.16  0.00 32.07                                                             
C 24.16  0.00 43.73                                                             
C 24.16  0.00 55.40                                                             
C  4.03 16.27  8.75                                                             
C  4.03 16.27 20.41                                                             
C  4.03 16.27 32.07                                                             
C  4.03 16.27 43.73                                                             
C  4.03 16.27 55.40                                                             
C  8.05 13.95  8.75                                                             
C  8.05 13.95 20.41                                                             
C  8.05 13.95 32.07                                                             
C  8.05 13.95 43.73                                                             
C  8.05 13.95 55.40                                                             
C 12.08 11.62  8.75                                                             
C 12.08 11.62 20.41                                                             
C 12.08 11.62 32.07                                                             
C 12.08 11.62 43.73                                                             
C 12.08 11.62 55.40                                                             
C 16.10  9.30  8.75                                                             
C 16.10  9.30 20.41                                                             
C 16.10  9.30 32.07                                                             
C 16.10  9.30 43.73                                                             
C 16.10  9.30 55.40                                                             
C 20.13  6.97  8.75                                                             
C 20.13  6.97 20.41                                                             
C 20.13  6.97 32.07                                                             
C 20.13  6.97 43.73                                                             
C 20.13  6.97 55.40                                                             
C 24.16  4.65  8.75                                                             
C 24.16  4.65 20.41                                                             
C 24.16  4.65 32.07                                                             
C 24.16  4.65 43.73                                                             
C 24.16  4.65 55.40                                                             
C 28.18  2.32  8.75                                                             
C 28.18  2.32 20.41                                                             
C 28.18  2.32 32.07                                                             
C 28.18  2.32 43.73                                                             
C 28.18  2.32 55.40                                                             
C 12.08 16.27  8.75                                                             
C 12.08 16.27 20.41                                                             
C 12.08 16.27 32.07                                                             
C 12.08 16.27 43.73                                                             
C 12.08 16.27 55.40                                                             
C 16.10 13.95  8.75                                                             
C 16.10 13.95 20.41                                                             
C 16.10 13.95 32.07                                                             
C 16.10 13.95 43.73                                                             
C 16.10 13.95 55.40                                                             
C 20.13 11.62  8.75                                                             
C 20.13 11.62 20.41                                                             
C 20.13 11.62 32.07                                                             
C 20.13 11.62 43.73                                                             
C 20.13 11.62 55.40                                                             
C 24.16  9.30  8.75                                                             
C 24.16  9.30 20.41                                                             
C 24.16  9.30 32.07                                                             
C 24.16  9.30 43.73                                                             
C 24.16  9.30 55.40                                                             
C 28.18  6.97  8.75                                                             
C 28.18  6.97 20.41                                                             
C 28.18  6.97 32.07                                                             
C 28.18  6.97 43.73                                                             
C 28.18  6.97 55.40                                                             
C 20.13 16.27  8.75                                                             
C 20.13 16.27 20.41                                                             
C 20.13 16.27 32.07                                                             
C 20.13 16.27 43.73                                                             
C 20.13 16.27 55.40                                                             
C 24.16 13.95  8.75                                                             
C 24.16 13.95 20.41                                                             
C 24.16 13.95 32.07                                                             
C 24.16 13.95 43.73                                                             
C 24.16 13.95 55.40                                                             
C 28.18 11.62  8.75                                                             
C 28.18 11.62 20.41                                                             
C 28.18 11.62 32.07                                                             
C 28.18 11.62 43.73                                                             
C 28.18 11.62 55.40                                                             
C 28.18 16.27  8.75                                                             
C 28.18 16.27 20.41                                                             
C 28.18 16.27 32.07                                                             
C 28.18 16.27 43.73                                                             
C 28.18 16.27 55.40                                                             
C  1.34  2.32  2.92                                                             
C  1.34  2.32 14.58                                                             
C  1.34  2.32 26.24                                                             
C  1.34  2.32 37.90                                                             
C  1.34  2.32 49.56                                                             
C  5.37  0.00  2.92                                                             
C  5.37  0.00 14.58                                                             
C  5.37  0.00 26.24                                                             
C  5.37  0.00 37.90                                                             
C  5.37  0.00 49.56                                                             
C  1.34  6.97  2.92                                                             
C  1.34  6.97 14.58                                                             
C  1.34  6.97 26.24                                                             
C  1.34  6.97 37.90                                                             
C  1.34  6.97 49.56                                                             
C  5.37  4.65  2.92                                                             
C  5.37  4.65 14.58                                                             
C  5.37  4.65 26.24                                                             
C  5.37  4.65 37.90                                                             
C  5.37  4.65 49.56                                                             
C  9.39  2.32  2.92                                                             
C  9.39  2.32 14.58                                                             
C  9.39  2.32 26.24                                                             
C  9.39  2.32 37.90                                                             
C  9.39  2.32 49.56                                                             
C 13.42  0.00  2.92                                                             
C 13.42  0.00 14.58                                                             
C 13.42  0.00 26.24                                                             
C 13.42  0.00 37.90                                                             
C 13.42  0.00 49.56                                                             
C  1.34 11.62  2.92                                                             
C  1.34 11.62 14.58                                                             
C  1.34 11.62 26.24                                                             
C  1.34 11.62 37.90                                                             
C  1.34 11.62 49.56                                                             
C  5.37  9.30  2.92                                                             
C  5.37  9.30 14.58                                                             
C  5.37  9.30 26.24                                                             
C  5.37  9.30 37.90                                                             
C  5.37  9.30 49.56                                                             
C  9.39  6.97  2.92                                                             
C  9.39  6.97 14.58                                                             
C  9.39  6.97 26.24                                                             
C  9.39  6.97 37.90                                                             
C  9.39  6.97 49.56                                                             
C 13.42  4.65  2.92                                                             
C 13.42  4.65 14.58                                                             
C 13.42  4.65 26.24                                                             
C 13.42  4.65 37.90                                                             
C 13.42  4.65 49.56                                                             
C 17.45  2.32  2.92                                                             
C 17.45  2.32 14.58                                                             
C 17.45  2.32 26.24                                                             
C 17.45  2.32 37.90                                                             
C 17.45  2.32 49.56                                                             
C 21.47  0.00  2.92                                                             
C 21.47  0.00 14.58                                                             
C 21.47  0.00 26.24                                                             
C 21.47  0.00 37.90                                                             
C 21.47  0.00 49.56                                                             
C  1.34 16.27  2.92                                                             
C  1.34 16.27 14.58                                                             
C  1.34 16.27 26.24                                                             
C  1.34 16.27 37.90                                                             
C  1.34 16.27 49.56                                                             
C  5.37 13.95  2.92                                                             
C  5.37 13.95 14.58                                                             
C  5.37 13.95 26.24                                                             
C  5.37 13.95 37.90                                                             
C  5.37 13.95 49.56                                                             
C  9.39 11.62  2.92                                                             
C  9.39 11.62 14.58                                                             
C  9.39 11.62 26.24                                                             
C  9.39 11.62 37.90                                                             
C  9.39 11.62 49.56                                                             
C 13.42  9.30  2.92                                                             
C 13.42  9.30 14.58                                                             
C 13.42  9.30 26.24                                                             
C 13.42  9.30 37.90                                                             
C 13.42  9.30 49.56                                                             
C 17.45  6.97  2.92                                                             
C 17.45  6.97 14.58                                                             
C 17.45  6.97 26.24                                                             
C 17.45  6.97 37.90                                                             
C 17.45  6.97 49.56                                                             
C 21.47  4.65  2.92                                                             
C 21.47  4.65 14.58                                                             
C 21.47  4.65 26.24                                                             
C 21.47  4.65 37.90                                                             
C 21.47  4.65 49.56                                                             
C 25.50  2.32  2.92                                                             
C 25.50  2.32 14.58                                                             
C 25.50  2.32 26.24                                                             
C 25.50  2.32 37.90                                                             
C 25.50  2.32 49.56                                                             
C 29.52  0.00  2.92                                                             
C 29.52  0.00 14.58                                                             
C 29.52  0.00 26.24                                                             
C 29.52  0.00 37.90                                                             
C 29.52  0.00 49.56                                                             
C  9.39 16.27  2.92                                                             
C  9.39 16.27 14.58                                                             
C  9.39 16.27 26.24                                                             
C  9.39 16.27 37.90                                                             
C  9.39 16.27 49.56                                                             
C 13.42 13.95  2.92                                                             
C 13.42 13.95 14.58                                                             
C 13.42 13.95 26.24                                                             
C 13.42 13.95 37.90                                                             
C 13.42 13.95 49.56                                                             
C 17.45 11.62  2.92                                                             
C 17.45 11.62 14.58                                                             
C 17.45 11.62 26.24                                                             
C 17.45 11.62 37.90                                                             
C 17.45 11.62 49.56                                                             
C 21.47  9.30  2.92                                                             
C 21.47  9.30 14.58                                                             
C 21.47  9.30 26.24                                                             
C 21.47  9.30 37.90                                                             
C 21.47  9.30 49.56                                                             
C 25.50  6.97  2.92                                                             
C 25.50  6.97 14.58                                                             
C 25.50  6.97 26.24                                                             
C 25.50  6.97 37.90                                                             
C 25.50  6.97 49.56                                                             
C 29.52  4.65  2.92                                                             
C 29.52  4.65 14.58                                                             
C 29.52  4.65 26.24                                                             
C 29.52  4.65 37.90                                                             
C 29.52  4.65 49.56                                                             
C 17.45 16.27  2.92                                                             
C 17.45 16.27 14.58                                                             
C 17.45 16.27 26.24                                                             
C 17.45 16.27 37.90                                                             
C 17.45 16.27 49.56                                                             
C 21.47 13.95  2.92                                                             
C 21.47 13.95 14.58                                                             
C 21.47 13.95 26.24                                                             
C 21.47 13.95 37.90                                                             
C 21.47 13.95 49.56                                                             
C 25.50 11.62  2.92                                                             
C 25.50 11.62 14.58                                                             
C 25.50 11.62 26.24                                                             
C 25.50 11.62 37.90                                                             
C 25.50 11.62 49.56                                                             
C 29.52  9.30  2.92                                                             
C 29.52  9.30 14.58                                                             
C 29.52  9.30 26.24                                                             
C 29.52  9.30 37.90                                                             
C 29.52  9.30 49.56                                                             
C 25.50 16.27  2.92                                                             
C 25.50 16.27 14.58                                                             
C 25.50 16.27 26.24                                                             
C 25.50 16.27 37.90                                                             
C 25.50 16.27 49.56                                                             
C 29.52 13.95  2.92                                                             
C 29.52 13.95 14.58                                                             
C 29.52 13.95 26.24                                                             
C 29.52 13.95 37.90                                                             
C 29.52 13.95 49.56                                                             
C  2.68  0.00  8.75                                                             
C  2.68  0.00 20.41                                                             
C  2.68  0.00 32.07                                                             
C  2.68  0.00 43.73                                                             
C  2.68  0.00 55.40                                                             
C  2.68  4.65  8.75                                                             
C  2.68  4.65 20.41                                                             
C  2.68  4.65 32.07                                                             
C  2.68  4.65 43.73                                                             
C  2.68  4.65 55.40                                                             
C  6.71  2.32  8.75                                                             
C  6.71  2.32 20.41                                                             
C  6.71  2.32 32.07                                                             
C  6.71  2.32 43.73                                                             
C  6.71  2.32 55.40                                                             
C 10.74  0.00  8.75                                                             
C 10.74  0.00 20.41                                                             
C 10.74  0.00 32.07                                                             
C 10.74  0.00 43.73                                                             
C 10.74  0.00 55.40                                                             
C  2.68  9.30  8.75                                                             
C  2.68  9.30 20.41                                                             
C  2.68  9.30 32.07                                                             
C  2.68  9.30 43.73                                                             
C  2.68  9.30 55.40                                                             
C  6.71  6.97  8.75                                                             
C  6.71  6.97 20.41                                                             
C  6.71  6.97 32.07                                                             
C  6.71  6.97 43.73                                                             
C  6.71  6.97 55.40                                                             
C 10.74  4.65  8.75                                                             
C 10.74  4.65 20.41                                                             
C 10.74  4.65 32.07                                                             
C 10.74  4.65 43.73                                                             
C 10.74  4.65 55.40                                                             
C 14.76  2.32  8.75                                                             
C 14.76  2.32 20.41                                                             
C 14.76  2.32 32.07                                                             
C 14.76  2.32 43.73                                                             
C 14.76  2.32 55.40                                                             
C 18.79  0.00  8.75                                                             
C 18.79  0.00 20.41                                                             
C 18.79  0.00 32.07                                                             
C 18.79  0.00 43.73                                                             
C 18.79  0.00 55.40                                                             
C  2.68 13.95  8.75                                                             
C  2.68 13.95 20.41                                                             
C  2.68 13.95 32.07                                                             
C  2.68 13.95 43.73                                                             
C  2.68 13.95 55.40                                                             
C  6.71 11.62  8.75                                                             
C  6.71 11.62 20.41                                                             
C  6.71 11.62 32.07                                                             
C  6.71 11.62 43.73                                                             
C  6.71 11.62 55.40                                                             
C 10.74  9.30  8.75                                                             
C 10.74  9.30 20.41                                                             
C 10.74  9.30 32.07                                                             
C 10.74  9.30 43.73                                                             
C 10.74  9.30 55.40                                                             
C 14.76  6.97  8.75                                                             
C 14.76  6.97 20.41                                                             
C 14.76  6.97 32.07                                                             
C 14.76  6.97 43.73                                                             
C 14.76  6.97 55.40                                                             
C 18.79  4.65  8.75                                                             
C 18.79  4.65 20.41                                                             
C 18.79  4.65 32.07                                                             
C 18.79  4.65 43.73                                                             
C 18.79  4.65 55.40                                                             
C 22.81  2.32  8.75                                                             
C 22.81  2.32 20.41                                                             
C 22.81  2.32 32.07                                                             
C 22.81  2.32 43.73                                                             
C 22.81  2.32 55.40                                                             
C 26.84  0.00  8.75                                                             
C 26.84  0.00 20.41                                                             
C 26.84  0.00 32.07                                                             
C 26.84  0.00 43.73                                                             
C 26.84  0.00 55.40                                                             
C  6.71 16.27  8.75                                                             
C  6.71 16.27 20.41                                                             
C  6.71 16.27 32.07                                                             
C  6.71 16.27 43.73                                                             
C  6.71 16.27 55.40                                                             
C 10.74 13.95  8.75                                                             
C 10.74 13.95 20.41                                                             
C 10.74 13.95 32.07                                                             
C 10.74 13.95 43.73                                                             
C 10.74 13.95 55.40                                                             
C 14.76 11.62  8.75                                                             
C 14.76 11.62 20.41                                                             
C 14.76 11.62 32.07                                                             
C 14.76 11.62 43.73                                                             
C 14.76 11.62 55.40                                                             
C 18.79  9.30  8.75                                                             
C 18.79  9.30 20.41                                                             
C 18.79  9.30 32.07                                                             
C 18.79  9.30 43.73                                                             
C 18.79  9.30 55.40                                                             
C 22.81  6.97  8.75                                                             
C 22.81  6.97 20.41                                                             
C 22.81  6.97 32.07                                                             
C 22.81  6.97 43.73                                                             
C 22.81  6.97 55.40                                                             
C 26.84  4.65  8.75                                                             
C 26.84  4.65 20.41                                                             
C 26.84  4.65 32.07                                                             
C 26.84  4.65 43.73                                                             
C 26.84  4.65 55.40                                                             
C 30.86  2.32  8.75                                                             
C 30.86  2.32 20.41                                                             
C 30.86  2.32 32.07                                                             
C 30.86  2.32 43.73                                                             
C 30.86  2.32 55.40                                                             
C 14.76 16.27  8.75                                                             
C 14.76 16.27 20.41                                                             
C 14.76 16.27 32.07                                                             
C 14.76 16.27 43.73                                                             
C 14.76 16.27 55.40                                                             
C 18.79 13.95  8.75                                                             
C 18.79 13.95 20.41                                                             
C 18.79 13.95 32.07                                                             
C 18.79 13.95 43.73                                                             
C 18.79 13.95 55.40                                                             
C 22.81 11.62  8.75                                                             
C 22.81 11.62 20.41                                                             
C 22.81 11.62 32.07                                                             
C 22.81 11.62 43.73                                                             
C 22.81 11.62 55.40                                                             
C 26.84  9.30  8.75                                                             
C 26.84  9.30 20.41                                                             
C 26.84  9.30 32.07                                                             
C 26.84  9.30 43.73                                                             
C 26.84  9.30 55.40                                                             
C 30.86  6.97  8.75                                                             
C 30.86  6.97 20.41                                                             
C 30.86  6.97 32.07                                                             
C 30.86  6.97 43.73                                                             
C 30.86  6.97 55.40                                                             
C 22.81 16.27  8.75                                                             
C 22.81 16.27 20.41                                                             
C 22.81 16.27 32.07                                                             
C 22.81 16.27 43.73                                                             
C 22.81 16.27 55.40                                                             
C 26.84 13.95  8.75                                                             
C 26.84 13.95 20.41                                                             
C 26.84 13.95 32.07                                                             
C 26.84 13.95 43.73                                                             
C 26.84 13.95 55.40                                                             
C 30.86 11.62  8.75                                                             
C 30.86 11.62 20.41                                                             
C 30.86 11.62 32.07                                                             
C 30.86 11.62 43.73                                                             
C 30.86 11.62 55.40                                                             
C 30.86 16.27  8.75                                                             
C 30.86 16.27 20.41                                                             
C 30.86 16.27 32.07                                                             
C 30.86 16.27 43.73                                                             
C 30.86 16.27 55.40                                                             
%ENDBLOCK POSITIONS_ABS                                                         

--------------------------------------------------------------------------------
-------------------------------- END INPUT FILE --------------------------------
--------------------------------------------------------------------------------


 
<<<<<<<<<<<<<<<<<<<<<<<<<<<<<<<<< Full system >>>>>>>>>>>>>>>>>>>>>>>>>>>>>>>>>>
<<<<<<<<<<<<<<<<<<<<<<<<<<< PAW Dataset information >>>>>>>>>>>>>>>>>>>>>>>>>>>
File: ~/pp/paw/c_pbe_abinit.paw; rc = 1.25 bohr; shape type =  3; rshape = 1.25 bohr;
  Atomic number:  6;  ionic charge:  4.000000
    Partial Wave 1: l = 0
    Partial Wave 2: l = 0
    Partial Wave 3: l = 1
    Partial Wave 4: l = 1
  Core charge supplied for Nonlinear Core Corrections
<<<<<<<<<<<<<<<<<<<<<<<<<<<<<<<<<<<<<<< >>>>>>>>>>>>>>>>>>>>>>>>>>>>>>>>>>>>>>>

-------------------------- Atom counting information ---------------------------
Symbol    Natoms    Nngwfs    Nprojs
  C        640      2560      5120
.......   ......    ......    ......
Totals:    640      2560      5120
--------------------------------------------------------------------------------

=============================== PSINC grid sizes ===============================
                      Simulation cell:   63 x  35 x 115
                              FFT-box:   63 x  35 x 111
                                  PPD:    7 x   5 x   1
Grid space d1=  0.511269841270a0 (KE cutoff=  29.06054Eh = 790.77748eV)
Grid space d2=  0.531142857143a0 (KE cutoff=  26.92659Eh = 732.70972eV)
Grid space d3=  0.507043478261a0 (KE cutoff=  29.54701Eh = 804.01516eV)
================================================================================
  
WARNING in cell_grid_distribute:
Average of less than one 23-slab per node, so workload cannot be
equally balanced between nodes.

********************* Fourier parallelisation information **********************
       Coarse grid (whole simulation cell) dimensions:     63    35   115
          Real-space ('12') slabs/node (min max mean):      2     3     2
         Recip-space ('23') slabs/node (min max mean):      0     1     0
********************************************************************************

********************* Fourier parallelisation information **********************
       Double grid (whole simulation cell) dimensions:    126    70   230
          Real-space ('12') slabs/node (min max mean):      5     6     5
         Recip-space ('23') slabs/node (min max mean):      1     2     1
********************************************************************************

Atom SCF Calculation for C  : Z (AE atom) =   6 : Z (PS atom) =   4
Config String: 2s2 2p2
Orbitals (num,occ):  2     2.00 2.00
Orbitals   (num,l):  2        0    1
Real-space Grid (nr,dr,rmax): 1293    0.0069659443    9.0000000000
Spherical Bessel Basis (nsws,lmax,cutoff):   37    2  161.4736382572
Confining potential (l,width,scale):  0    3.0000000000  100.0000000000
Confining potential (l,width,scale):  1    3.0000000000  100.0000000000
  1         -5.4129360987   -1.2444937266    4.5135257941   -1.5420271367
  2         -5.3444202281   -1.3377187790    4.4131101426   -1.5071921700
  3         -5.3525226456   -1.3566567794    4.3924752240   -1.5004938544
  4         -5.3561013121   -1.3623552809    4.3862114699   -1.4986199617
  5         -5.3580093800   -1.3653574582    4.3828991843   -1.4976654093
  6         -5.3590276761   -1.3669475005    4.3811409016   -1.4971696795
  7         -5.3595688314   -1.3677934914    4.3802040659   -1.4969088858
  8         -5.3598556216   -1.3682449178    4.3797036984   -1.4967706290
  9         -5.3600074081   -1.3684862338    4.3794360452   -1.4966970063
 10         -5.3600877081   -1.3686153812    4.3792927313   -1.4966576988
 11         -5.3601301919   -1.3686845537    4.3792159394   -1.4966366788
 12         -5.3601526758   -1.3687216261    4.3791747687   -1.4966254262
 13         -5.3601645804   -1.3687415049    4.3791526850   -1.4966193980
 14         -5.3601708871   -1.3687521691    4.3791408341   -1.4966161667
 15         -5.3601742301   -1.3687578926    4.3791344719   -1.4966144337
 16         -5.3601760032   -1.3687609656    4.3791310549   -1.4966135039
 17         -5.3601769442   -1.3687626162    4.3791292190   -1.4966130048
 18         -5.3601774440   -1.3687635032    4.3791282322   -1.4966127369
 19         -5.3601777096   -1.3687639799    4.3791277016   -1.4966125929
 20         -5.3601778508   -1.3687642363    4.3791274162   -1.4966125155
 21         -5.3601779259   -1.3687643743    4.3791272626   -1.4966124740
Atom SCF converged after  21 iterations to a total energy of     -5.36017793

Determining parallel strategy ...
... using space-filling curve
... NGWF load balancing: max     64;  min     64;  average     64
... Projector load balancing: max    128;  min    128;  average    128
... done
Calculating Ewald energy ...
              Ewald: real-space energy =    9554.967308
        Ewald: reciprocal-space energy =       0.031274
         Ewald: (sum_charge)**2 Energy =   11633.727624
         Ewald: (sum_charge**2) Energy =     919.726924
                          Ewald Energy =   -2998.455967
Basis initialisation ...... NGWF spheres initialised
... Projector spheres initialised
... NGWF tight boxes initialised
... Projector tight boxes initialised
... Tight-boxes gathered
... NGWF basis size (local,global):     694356  27887328
... PAW projector initialisation
... done

============================= Charge Augmentation ==============================
                           Aug box size:   11 x  11 x  11
================================================================================

========================== Sparse matrix information ===========================
                        Overlap matrix filling:  46.25%
                        Density kernel filling: 100.00%
              NGWF-Proj overlap matrix filling:  13.12%
                    Aug Overlap matrix filling:  49.38%
                    Hamiltonian matrix filling:  49.38%
                  NGWF diagonal matrix filling:   0.16%
                             KS matrix filling: 100.00% 
                           KSKS matrix filling: 100.00% 
================================================================================

Sparse matrix initialisation ... done
NGWF initialisation ...... done
============ Calculation of NGWF S^-1 using Hotelling algorithm ================ 
         Iteration  |  Frobenius norm and Maximum abs value    (of I-S*S_n^-1)   
               1       0.49307993E+02     0.97923576E+00
               2       0.48252742E+02     0.96020693E+00
               3       0.46623790E+02     0.92638830E+00
               4       0.44441008E+02     0.87098246E+00
               5       0.41773236E+02     0.78838957E+00
               6       0.38586539E+02     0.69768606E+00
               7       0.35102903E+02     0.64660254E+00
               8       0.31755216E+02     0.60479552E+00
               9       0.28414631E+02     0.56555810E+00
              10       0.24396682E+02     0.50949618E+00
              11       0.19128086E+02     0.41757640E+00
              12       0.12628852E+02     0.28488226E+00
              13       0.61623640E+01     0.13878515E+00
              14       0.17361927E+01     0.36720695E-01
              15       0.16436319E+00     0.30916206E-02
              16       0.17945330E-02     0.27518404E-04
              17       0.30732108E-06     0.30803681E-08
              18       0.92376476E-13     0.55511151E-14
================================================================================
Calculating core density ...
================================= Core Density =================================
               Core den box size:   21 x  21 x  21
================================================================================
 ... done
Up spin density kernel initialisation ...... done

Writing density kernel to file "3.085688_GO_manual_4x64graphite.dkn" ... done

>>> Optimising kernel for current NGWFs:

--------------------------- Ensemble-DFT optimisation --------------------------
Running ScaLAPACK on   40 processor(s).

--------------------------------------------------------------------------------
  Iter                              Commutator    Free_energy(A=E-TS)     DeltaA
#    0                          0.000063998384   -3620.33853276841319  -3.62E+03

Step                       =       0.381966011250
Energy                     =   -3620.338492880891
Entropy (-TS)              =      -0.000039887439
Free energy (A=E-TS)       =   -3620.338532768413
Est. 0K Energy 0.5*(E+A)   =   -3620.338512824652
Residual Non-orthogonality =       0.000000000000
Residual N_electrons       =      -0.000000000083

Spin          Integrated_Ne            Fermi_level     Delta_Fermi_level
   1      2560.000000000321         0.259357675010              2.59E-01

                           Spin 1          
     Orb      H-eigenvalues     Occupancies
       1 |    -0.4691379808    1.0000000000 | 
                          ------
    1276 |     0.2266664329    0.9999671353 | 
    1277 |     0.2272726701    0.9999602016 | 
    1278 |     0.2272761587    0.9999601577 | 
    1279 |     0.2274206297    0.9999582981 | 
    1280 |     0.2280115124    0.9999497443 | 
                 - Gap at zero temperature -
    1281 |     0.2927909837    0.0000259996 | 
    1282 |     0.2927997666    0.0000259276 | 
    1283 |     0.2929960674    0.0000243692 | 
    1284 |     0.2930134544    0.0000242358 | 
    1285 |     0.2930221926    0.0000241690 | 
                          ------
    2560 |     1.1012652971    0.0000000000 | 

                       |  Abs_value |  Threshold | Converged
     Delta_Free_energy |   3.62E+03 |   1.00E-06 |        No
     Delta_Energy      |   3.62E+03 |   1.00E-04 |        No
     Delta_Entropy     |   3.99E-05 |   1.00E-04 |       Yes
     Commutator        |   6.40E-05 |   1.00E-05 |        No
     Delta_Fermi_level |   2.59E-01 |   1.00E-03 |        No

  Line search of the free energy minimum:
  Step_type        Step             Free_energy   Predicted_free_energy
.   Initial    0.000000    -3620.33853276841319
.    Trial1    0.381966    -3620.34300204040710
.    Trial2    0.618034    -3620.34217958589170
. Quadratic    0.429099    -3620.34305619048655    -3620.34305662193037

--------------------------------------------------------------------------------
  Iter                              Commutator    Free_energy(A=E-TS)     DeltaA
#    1                          0.000027668442   -3620.34305619048655  -4.52E-03

Step                       =       0.429099131953
Energy                     =   -3620.343016152100
Entropy (-TS)              =      -0.000040038387
Free energy (A=E-TS)       =   -3620.343056190487
Est. 0K Energy 0.5*(E+A)   =   -3620.343036171294
Residual Non-orthogonality =       0.000000000000
Residual N_electrons       =       0.000000000000

Spin          Integrated_Ne            Fermi_level     Delta_Fermi_level
   1      2559.999999999998         0.261162370873              1.80E-03

                           Spin 1          
     Orb      H-eigenvalues     Occupancies
       1 |    -0.4670797811    1.0000000000 | 
                          ------
    1276 |     0.2285639607    0.9999661577 | 
    1277 |     0.2290353596    0.9999607260 | 
    1278 |     0.2290492938    0.9999605528 | 
    1279 |     0.2293477535    0.9999566544 | 
    1280 |     0.2298149826    0.9999497637 | 
                 - Gap at zero temperature -
    1281 |     0.2945942379    0.0000260114 | 
    1282 |     0.2946155876    0.0000258366 | 
    1283 |     0.2947560775    0.0000247155 | 
    1284 |     0.2947708779    0.0000246003 | 
    1285 |     0.2948522402    0.0000239763 | 
                          ------
    2560 |     1.1052689937    0.0000000000 | 

                       |  Abs_value |  Threshold | Converged
     Delta_Free_energy |   4.52E-03 |   1.00E-06 |        No
     Delta_Energy      |   4.52E-03 |   1.00E-04 |        No
     Delta_Entropy     |   1.51E-07 |   1.00E-04 |       Yes
     Commutator        |   2.77E-05 |   1.00E-05 |        No
     Delta_Fermi_level |   1.80E-03 |   1.00E-03 |        No

  Line search of the free energy minimum:
  Step_type        Step             Free_energy   Predicted_free_energy
.   Initial    0.000000    -3620.34305619048655
.    Trial1    0.429099    -3620.34370484380179
.    Trial2    0.647164    -3620.34315215628112
. Quadratic    0.335441    -3620.34375984760254    -3620.34375968709764

--------------------------------------------------------------------------------
  Iter                              Commutator    Free_energy(A=E-TS)     DeltaA
#    2                          0.000019276432   -3620.34375984760254  -7.04E-04

Step                       =       0.335440760386
Energy                     =   -3620.343720038227
Entropy (-TS)              =      -0.000039808874
Free energy (A=E-TS)       =   -3620.343759847603
Est. 0K Energy 0.5*(E+A)   =   -3620.343739942915
Residual Non-orthogonality =       0.000000000000
Residual N_electrons       =      -0.000000000502

Spin          Integrated_Ne            Fermi_level     Delta_Fermi_level
   1      2560.000000001917         0.261847706654              6.85E-04

                           Spin 1          
     Orb      H-eigenvalues     Occupancies
       1 |    -0.4661815179    1.0000000000 | 
                          ------
    1276 |     0.2292150093    0.9999665221 | 
    1277 |     0.2297170848    0.9999607707 | 
    1278 |     0.2297321944    0.9999605831 | 
    1279 |     0.2299843431    0.9999573165 | 
    1280 |     0.2304831781    0.9999500349 | 
                 - Gap at zero temperature -
    1281 |     0.2953017357    0.0000258300 | 
    1282 |     0.2953240768    0.0000256484 | 
    1283 |     0.2954785373    0.0000244275 | 
    1284 |     0.2954919842    0.0000243240 | 
    1285 |     0.2955588935    0.0000238155 | 
                          ------
    2560 |     1.1070132817    0.0000000000 | 

                       |  Abs_value |  Threshold | Converged
     Delta_Free_energy |   7.04E-04 |   1.00E-06 |        No
     Delta_Energy      |   7.04E-04 |   1.00E-04 |        No
     Delta_Entropy     |   2.30E-07 |   1.00E-04 |       Yes
     Commutator        |   1.93E-05 |   1.00E-05 |        No
     Delta_Fermi_level |   6.85E-04 |   1.00E-03 |       Yes

  Line search of the free energy minimum:
  Step_type        Step             Free_energy   Predicted_free_energy
.   Initial    0.000000    -3620.34375984760254
.    Trial1    0.335441    -3620.34398380966377
.    Trial2    0.589280    -3620.34333673731044
. Quadratic    0.228874    -3620.34404584509002    -3620.34404580288492

--------------------------------------------------------------------------------
  Iter                              Commutator    Free_energy(A=E-TS)     DeltaA
#    3                          0.000013034404   -3620.34404584509002  -2.86E-04

Step                       =       0.228874379047
Energy                     =   -3620.344006113659
Entropy (-TS)              =      -0.000039730889
Free energy (A=E-TS)       =   -3620.344045845090
Est. 0K Energy 0.5*(E+A)   =   -3620.344025979374
Residual Non-orthogonality =       0.000000000000
Residual N_electrons       =      -0.000000000542

Spin          Integrated_Ne            Fermi_level     Delta_Fermi_level
   1      2560.000000002069         0.262164594729              3.17E-04

                           Spin 1          
     Orb      H-eigenvalues     Occupancies
       1 |    -0.4657715588    1.0000000000 | 
                          ------
    1276 |     0.2295252517    0.9999665923 | 
    1277 |     0.2300290260    0.9999608320 | 
    1278 |     0.2300440217    0.9999606461 | 
    1279 |     0.2302918544    0.9999574427 | 
    1280 |     0.2307922789    0.9999501576 | 
                 - Gap at zero temperature -
    1281 |     0.2956254871    0.0000257741 | 
    1282 |     0.2956476722    0.0000255942 | 
    1283 |     0.2958008039    0.0000243860 | 
    1284 |     0.2958146839    0.0000242794 | 
    1285 |     0.2958827947    0.0000237628 | 
                          ------
    2560 |     1.1078079454    0.0000000000 | 

                       |  Abs_value |  Threshold | Converged
     Delta_Free_energy |   2.86E-04 |   1.00E-06 |        No
     Delta_Energy      |   2.86E-04 |   1.00E-04 |        No
     Delta_Entropy     |   7.80E-08 |   1.00E-04 |       Yes
     Commutator        |   1.30E-05 |   1.00E-05 |        No
     Delta_Fermi_level |   3.17E-04 |   1.00E-03 |       Yes

  Line search of the free energy minimum:
  Step_type        Step             Free_energy   Predicted_free_energy
.   Initial    0.000000    -3620.34404584509002
.    Trial1    0.228874    -3620.34417571842960
.    Trial2    0.523418    -3620.34409487923904
. Quadratic    0.290830    -3620.34418189141525    -3620.34418189256257

--------------------------------------------------------------------------------
  Iter                              Commutator    Free_energy(A=E-TS)     DeltaA
[...]
 C   275 -- C   555       -0.10      5.37000
 C   274 -- C   554       -0.10      5.37000
 C   273 -- C   553       -0.10      5.37000
 C   272 -- C   552       -0.10      5.37000
 C   271 -- C   551       -0.10      5.37000
 C   270 -- C   550       -0.10      5.37000
 C   269 -- C   549       -0.10      5.37000
 C   268 -- C   548       -0.10      5.37000
 C   267 -- C   547       -0.10      5.37000
 C   266 -- C   546       -0.10      5.37000
 C   130 -- C   465       -0.10      5.37000
 C   129 -- C   464       -0.10      5.37000
 C   128 -- C   463       -0.10      5.37000
 C   127 -- C   462       -0.10      5.37000
 C   126 -- C   461       -0.10      5.37000
 C   240 -- C   525       -0.10      5.37000
 C   239 -- C   524       -0.10      5.37000
 C   238 -- C   523       -0.10      5.37000
 C   237 -- C   522       -0.10      5.37000
 C   236 -- C   521       -0.10      5.37000
 C    23 -- C   478       -0.10      5.37202
 C    49 -- C   469       -0.10      5.37202
 C    48 -- C   468       -0.10      5.37202
 C    47 -- C   467       -0.10      5.37202
 C    22 -- C   477       -0.10      5.37202
 C    46 -- C   466       -0.10      5.37202
 C    21 -- C   476       -0.10      5.37202
 C    25 -- C   480       -0.10      5.37202
 C    24 -- C   479       -0.10      5.37202
 C    50 -- C   470       -0.10      5.37202
 C    24 -- C   449       -0.10      5.37202
 C     6 -- C   416       -0.10      5.37202
 C    23 -- C   448       -0.10      5.37202
 C    22 -- C   447       -0.10      5.37202
 C    10 -- C   470       -0.10      5.37202
 C     5 -- C   450       -0.10      5.37202
 C    21 -- C   446       -0.10      5.37202
 C    10 -- C   420       -0.10      5.37202
 C     9 -- C   469       -0.10      5.37202
 C     9 -- C   419       -0.10      5.37202
 C     8 -- C   468       -0.10      5.37202
 C     4 -- C   449       -0.10      5.37202
 C     8 -- C   418       -0.10      5.37202
 C   285 -- C   580       -0.10      5.37202
 C   284 -- C   579       -0.10      5.37202
 C   283 -- C   578       -0.10      5.37202
 C   282 -- C   577       -0.10      5.37202
 C   281 -- C   576       -0.10      5.37202
 C     2 -- C   447       -0.10      5.37202
 C     7 -- C   467       -0.10      5.37202
 C   260 -- C   605       -0.10      5.37202
 C   259 -- C   604       -0.10      5.37202
 C   258 -- C   603       -0.10      5.37202
 C   257 -- C   602       -0.10      5.37202
 C   256 -- C   601       -0.10      5.37202
 C     7 -- C   417       -0.10      5.37202
 C     1 -- C   446       -0.10      5.37202
 C     6 -- C   466       -0.10      5.37202
 C    25 -- C   450       -0.10      5.37202
 C     3 -- C   448       -0.10      5.37202
 C   219 -- C   569       -0.10      5.37202
 C   218 -- C   568       -0.10      5.37202
 C   217 -- C   567       -0.10      5.37202
 C   216 -- C   566       -0.10      5.37202
 C   250 -- C   540       -0.10      5.37202
 C   249 -- C   539       -0.10      5.37202
 C   248 -- C   538       -0.10      5.37202
 C   247 -- C   537       -0.10      5.37202
 C   246 -- C   536       -0.10      5.37202
 C   220 -- C   570       -0.10      5.37202
 C   205 -- C   550       -0.10      5.37202
 C   204 -- C   549       -0.10      5.37202
 C   203 -- C   548       -0.10      5.37202
 C   202 -- C   547       -0.10      5.37202
 C   201 -- C   546       -0.10      5.37202
 C    95 -- C   365       -0.10      5.37202
 C    94 -- C   364       -0.10      5.37202
 C    93 -- C   363       -0.10      5.37202
 C    92 -- C   362       -0.10      5.37202
 C    91 -- C   361       -0.10      5.37202
 C    65 -- C   395       -0.10      5.37202
 C    64 -- C   394       -0.10      5.37202
 C    63 -- C   393       -0.10      5.37202
 C    30 -- C   355       -0.10      5.37202
 C    62 -- C   392       -0.10      5.37202
 C    61 -- C   391       -0.10      5.37202
 C    29 -- C   354       -0.10      5.37202
 C   260 -- C   550       -0.10      5.37202
 C   259 -- C   549       -0.10      5.37202
 C    28 -- C   353       -0.10      5.37202
 C   258 -- C   548       -0.10      5.37202
 C   257 -- C   547       -0.10      5.37202
 C   256 -- C   546       -0.10      5.37202
 C    27 -- C   352       -0.10      5.37202
 C    26 -- C   351       -0.10      5.37202
 C    55 -- C   335       -0.10      5.37202
 C    54 -- C   334       -0.10      5.37202
 C    53 -- C   333       -0.10      5.37202
 C   230 -- C   580       -0.10      5.37202
 C   230 -- C   525       -0.10      5.37202
 C   229 -- C   579       -0.10      5.37202
 C   229 -- C   524       -0.10      5.37202
 C   228 -- C   578       -0.10      5.37202
 C    52 -- C   332       -0.10      5.37202
 C   228 -- C   523       -0.10      5.37202
 C   227 -- C   577       -0.10      5.37202
 C   227 -- C   522       -0.10      5.37202
 C   226 -- C   576       -0.10      5.37202
 C   226 -- C   521       -0.10      5.37202
 C    51 -- C   331       -0.10      5.37202
 C   220 -- C   515       -0.10      5.37202
 C   219 -- C   514       -0.10      5.37202
 C   218 -- C   513       -0.10      5.37202
 C   217 -- C   512       -0.10      5.37202
 C   216 -- C   511       -0.10      5.37202
 C   195 -- C   540       -0.10      5.37202
 C   195 -- C   500       -0.10      5.37202
 C   194 -- C   539       -0.10      5.37202
 C   194 -- C   499       -0.10      5.37202
 C   193 -- C   538       -0.10      5.37202
 C   193 -- C   498       -0.10      5.37202
 C   192 -- C   537       -0.10      5.37202
 C   192 -- C   497       -0.10      5.37202
 C   191 -- C   536       -0.10      5.37202
 C   191 -- C   496       -0.10      5.37202
 C   180 -- C   515       -0.10      5.37202
 C   179 -- C   514       -0.10      5.37202
 C   178 -- C   513       -0.10      5.37202
 C   177 -- C   512       -0.10      5.37202
 C   176 -- C   511       -0.10      5.37202
 C   150 -- C   440       -0.10      5.37202
 C   149 -- C   439       -0.10      5.37202
 C   148 -- C   438       -0.10      5.37202
 C   147 -- C   437       -0.10      5.37202
 C   146 -- C   436       -0.10      5.37202
 C   135 -- C   460       -0.10      5.37202
 C   134 -- C   459       -0.10      5.37202
 C   133 -- C   458       -0.10      5.37202
 C   132 -- C   457       -0.10      5.37202
 C   131 -- C   456       -0.10      5.37202
 C    11 -- C   331       -0.10      5.37202
 C    95 -- C   425       -0.10      5.37202
 C    94 -- C   424       -0.10      5.37202
 C    93 -- C   423       -0.10      5.37202
 C    92 -- C   422       -0.10      5.37202
 C    91 -- C   421       -0.10      5.37202
 C    85 -- C   355       -0.10      5.37202
 C    40 -- C   365       -0.10      5.37202
 C    84 -- C   354       -0.10      5.37202
 C    83 -- C   353       -0.10      5.37202
 C    82 -- C   352       -0.10      5.37202
 C    39 -- C   364       -0.10      5.37202
 C    81 -- C   351       -0.10      5.37202
 C    38 -- C   363       -0.10      5.37202
 C    37 -- C   362       -0.10      5.37202
 C    36 -- C   361       -0.10      5.37202
 C    15 -- C   335       -0.10      5.37202
 C    65 -- C   345       -0.10      5.37202
 C    64 -- C   344       -0.10      5.37202
 C    63 -- C   343       -0.10      5.37202
 C    30 -- C   325       -0.10      5.37202
 C    62 -- C   342       -0.10      5.37202
 C    14 -- C   334       -0.10      5.37202
 C    61 -- C   341       -0.10      5.37202
 C    29 -- C   324       -0.10      5.37202
 C    28 -- C   323       -0.10      5.37202
 C    13 -- C   333       -0.10      5.37202
 C    27 -- C   322       -0.10      5.37202
 C   120 -- C   395       -0.10      5.37202
 C    55 -- C   385       -0.10      5.37202
 C   119 -- C   394       -0.10      5.37202
 C   118 -- C   393       -0.10      5.37202
 C   117 -- C   392       -0.10      5.37202
 C    54 -- C   384       -0.10      5.37202
 C    26 -- C   321       -0.10      5.37202
 C   116 -- C   391       -0.10      5.37202
 C    53 -- C   383       -0.10      5.37202
 C    12 -- C   332       -0.10      5.37202
 C    52 -- C   382       -0.10      5.37202
 C    51 -- C   381       -0.10      5.37202
 C   106 -- C   436       -0.10      5.37202
 C   106 -- C   376       -0.10      5.37202
 C    80 -- C   410       -0.10      5.37202
 C    79 -- C   409       -0.10      5.37202
 C    78 -- C   408       -0.10      5.37202
 C    77 -- C   407       -0.10      5.37202
 C    76 -- C   406       -0.10      5.37202
 C   135 -- C   410       -0.10      5.37202
 C   134 -- C   409       -0.10      5.37202
 C   133 -- C   408       -0.10      5.37202
 C   132 -- C   407       -0.10      5.37202
 C   131 -- C   406       -0.10      5.37202
 C   110 -- C   440       -0.10      5.37202
 C   110 -- C   380       -0.10      5.37202
 C   109 -- C   439       -0.10      5.37202
 C   109 -- C   379       -0.10      5.37202
 C   108 -- C   438       -0.10      5.37202
 C   108 -- C   378       -0.10      5.37202
 C   107 -- C   437       -0.10      5.37202
 C   107 -- C   377       -0.10      5.37202
 C   215 -- C   635       -0.10      5.38000
 C   214 -- C   634       -0.10      5.38000
 C   213 -- C   633       -0.10      5.38000
 C   212 -- C   632       -0.10      5.38000
 C   211 -- C   631       -0.10      5.38000
 C   190 -- C   620       -0.10      5.38000
 C   189 -- C   619       -0.10      5.38000
 C   188 -- C   618       -0.10      5.38000
 C   187 -- C   617       -0.10      5.38000
 C   186 -- C   616       -0.10      5.38000
 C   175 -- C   595       -0.10      5.38000
 C   174 -- C   594       -0.10      5.38000
 C   173 -- C   593       -0.10      5.38000
 C   172 -- C   592       -0.10      5.38000
 C   171 -- C   591       -0.10      5.38000
 C   245 -- C   640       -0.10      5.38000
 C   244 -- C   639       -0.10      5.38000
 C   243 -- C   638       -0.10      5.38000
 C   242 -- C   637       -0.10      5.38000
 C   241 -- C   636       -0.10      5.38000
==================================================


=================== Orbital energy and occupancy information ===================

      Total number of orbitals:    2560
        Occupancy sum (kernel):    1280.000000000
   Occupancy sum (eigenvalues):    1280.000000000
                 HOMO-LUMO gap:       0.062167032 Eh
                 Mid-gap level:       0.295491931 Eh

                        Orbital | Energy (Eh) | Occupancy
                            1    -0.431888591   1.0000000
                        .......   ...........   .........
                         1271     0.259875535   0.9999849
                         1272     0.259898904   0.9999848
                         1273     0.260346486   0.9999825
                         1274     0.260369762   0.9999824
                         1275     0.263914548   0.9999460
                         1276     0.263976781   0.9999451
                         1277     0.263979810   0.9999450
                         1278     0.264320062   0.9999387
                         1279     0.264405253   0.9999371
                         1280     0.264408415   0.9999371
                        ....... -- gap at 0K -- .........
                         1281     0.326575447   0.0000473
                         1282     0.326582195   0.0000472
                         1283     0.326822972   0.0000437
                         1284     0.326829731   0.0000436
                         1285     0.328063924   0.0000298
                         1286     0.328069442   0.0000297
                         1287     0.328331643   0.0000274
                         1288     0.328337147   0.0000273
                         1289     0.328943956   0.0000226
                         1290     0.329219868   0.0000208
                        .......   ...........   .........
                         2560     1.195683829   0.0000000

================================================================================

===================== Writing canonical molecular orbitals =====================
| Orbital  Energy (eV)  Norm     |
| HOMO      7.19491908  1.000000 | Writing "3.085688_GO_manual_4x64graphite_HOMO.cube" ... done
Writing "3.085688_GO_manual_4x64graphite_HOMO.dx" ... done
| LUMO      8.88657009  1.000000 | Writing "3.085688_GO_manual_4x64graphite_LUMO.cube" ... done
Writing "3.085688_GO_manual_4x64graphite_LUMO.dx" ... done
================================================================================
 
===================== Density of States (DOS) calculation ======================
Writing "3.085688_GO_manual_4x64graphite_DOS.txt" ...  done
================================================================================
 
Writing bands to file "3.085688_GO_manual_4x64graphite.val_bands" ... done
 
================ Projected Density of States (pDOS) calculation ================
 
Constructing AM resolved functions  ...... done
Writing NGWF plot files in formats: CUBE DX ...  done
 
Performing overlap integrals ...  done
 
Computing pDOS weights ...  done
 
All bands spilling parameter =   3.79 %
Occupancy-weighted spilling parameter =   0.77 %
 
 => Outputting data for OptaDOS <=
 
Writing pDOS weights to file "3.085688_GO_manual_4x64graphite.val_pdos_bin" ... done
 
Writing band gradients to file "3.085688_GO_manual_4x64graphite.val_dome_bin" ... done
 
Writing Castep output cell file to "3.085688_GO_manual_4x64graphite-out.cell" ... done
 
 => Computing Gaussian smeared pDOS <= 
Writing "3.085688_GO_manual_4x64graphite_PDOS.txt" ...  done
 
 => Computing Occupancy-weighted Gaussian smeared pDOS <= 
Writing "3.085688_GO_manual_4x64graphite_occ_PDOS.txt" ...  done
  => Band centres: 
 S band centre of group 1:  -14.590614 eV
 P band centre of group 1:   -7.544147 eV
  Band centres done. <=
  => Integrated number of electrons in each AM band: 
 S num electrons of group 1:  571.869161
 P num electrons of group 1: 1968.429227
  Integrated number of electrons done. <=
================================================================================

------------------------------ TIMING INFORMATION ------------------------------
AVERAGE TIME:    4467.938s on     40 node(s)                                    
TOTAL TIME:      4467.939s on     40 node(s)                                    
================= AVERAGE TIMINGS FROM ALL NODES (CUMULATIVE) ==================
|| TAG                                    #calls    cpu time   %total  Gflops ||
|| work_imbalance                       :     1        0.00s   0.000%  ------ ||
|| paw_tcore_hartree_on_grid            :     1        0.01s   0.000%  ------ ||
|| paw_tcore_density                    :     1        0.01s   0.000%  ------ ||
|| paw_sphere_density_on_grid           :     1        0.01s   0.000%  ------ ||
|| sparse_set_to_garbage                :   171        0.03s   0.001%  ------ ||
|| paw_dij_hartree                      :   391        0.05s   0.001%  ------ ||
|| pseudo_make_structure_factor         :     1        0.05s   0.001%  ------ ||
|| basis_extract_function_from_box      :  1920        0.08s   0.002%  ------ ||
|| paw_species_calc_proj_prec_mat       :     1        0.12s   0.003%  ------ ||
|| paw_dataset_init                     :     1        0.15s   0.003%  ------ ||
|| density_init_guess_real              :     1        0.26s   0.006%  ------ ||
|| ngwfs_initialise_from_radial         :     2        0.67s   0.015%  ------ ||
|| restart_kernel_write                 :    16        0.75s   0.017%  ------ ||
|| sparse_init                          :     1        0.99s   0.022%  ------ ||
|| dense_normal_eigensolve              :     1        1.05s   0.023%  ------ ||
|| hartree_on_grid                      :   293        1.69s   0.038%  ------ ||
|| ewald_calculate_energy               :     1        2.24s   0.050%  ------ ||
|| projectors_init_fftbox_recip         :   151        2.76s   0.062%  ------ ||
|| basis_copy_function_to_box           : 27520        5.22s   0.117%  ------ ||
|| fourier_apply_box_pair               :  2848        5.85s   0.131% 426.303 ||
|| augmentation_screen_dij              :   298        6.31s   0.141%  ------ ||
|| sw_init                              :     1        6.73s   0.151%  ------ ||
|| sparse_embed_hotelling_invert_embed  :    29        9.07s   0.203%  ------ ||
|| ngwf_gradient_coeffs                 :    15       12.75s   0.285%  ------ ||
|| fourier_apply_cell_backward          :  9054       16.89s   0.378%  57.576 ||
|| cell_grid_extract_box_real           : 11628       17.17s   0.384%  ------ ||
|| fourier_apply_cell_forward           :  8469       19.00s   0.425%  47.855 ||
|| sparse_trace                         :  3558       19.60s   0.439%  ------ ||
|| cell_grid_deposit_box_real           : 37680       26.34s   0.589%  ------ ||
|| paw_dij_xc                           :   391       35.56s   0.796%  ------ ||
|| aug_nonlocal_mat                     :   376       48.97s   1.096%  ------ ||
|| density_fftbox_deposit_to_cell       : 18752       50.16s   1.123%  ------ ||
|| eigenstates_pdos                     :     1       53.95s   1.207%  ------ ||
|| hamiltonian_energy_components        :     3       54.55s   1.221%  ------ ||
|| augmentation_density_on_grid         :   293       56.04s   1.254%  ------ ||
|| eigenstates_calculate                :     1       58.05s   1.299%  ------ ||
|| function_ops_brappd_ketppd           :    60       71.59s   1.602%  ------ ||
|| projectors_func_ovlp_box             :    30       74.31s   1.663%  ------ ||
|| nlxc_vdw_energy                      :   584       80.74s   1.807%  ------ ||
|| xc_energy_potential                  :   292       82.83s   1.854%  ------ ||
|| properties_calculate                 :     1      104.02s   2.328%  ------ ||
|| restart_ngwfs_tightbox_output        :    14      107.23s   2.400%  ------ ||
|| integrals_kinetic                    :    29      122.36s   2.739%  ------ ||
|| dense_eigensolve                     :   260      123.98s   2.775%  ------ ||
|| potential_apply_to_ngwf_batch        :   368      148.58s   3.326%  ------ ||
|| sparse_product                       :  3532      159.66s   3.574%  ------ ||
|| basis_dot_function_with_box          : 9.361M     249.46s   5.583%  ------ ||
|| projectors_gradient_batch            :    60      265.32s   5.938%  ------ ||
|| edft_diag_ngwf_ham                   :   259      282.86s   6.331%  ------ ||
|| fourier_apply_box                    : 86224      295.56s   6.615% 842.869 ||
|| density_fftbox_interpolate_multiply  : 18752      359.24s   8.040%  ------ ||
|| projectors_grad_precond_batch        :    60      385.27s   8.623%  ------ ||
|| integrals_locpot_mat_els_batch       :   368      387.48s   8.672%  ------ ||
|| density_batch_interp_deposit         :  1172      457.21s  10.233%  ------ ||
|| integrals_locpot_dbl_grid            :    92      538.18s  12.045%  ------ ||
|| edft_apply_smearing_operator         :   259      556.18s  12.448%  ------ ||
|| basis_add_function_to_box            : 26.75M     682.07s  15.266%  ------ ||
|| ngwf_gradient_build_batch            :    60      696.26s  15.584%  ------ ||
|| ngwf_gradient_batch                  :    60      947.86s  21.215%  ------ ||
|| ngwf_gradient_lnv                    :    15      982.15s  21.982%  ------ ||
|| density_batch_row_sums               :  1172     1125.04s  25.180%  ------ ||
|| density_on_dbl_grid                  :   293     1596.56s  35.734%  ------ ||
|| hamiltonian_lhxc_calculate           :   288     1717.29s  38.436%  ------ ||
|| edft_calculate                       :    15     2809.52s  62.882%  ------ ||
|| ngwf_cg_optimise                     :     1     4342.36s  97.189%  ------ ||
|| total_time                           :     1     4467.94s 100.000%  ------ ||
================================================================================
Overhead of generating timer report: 
- 0 ms averaging over threads,
- 6 ms ensuring consistency across MPI ranks,
- 0 ms printing in order.

Job completed: 21-02-2020 16:34 (-0000)

