 +---------------------------------------------------------------+
 |                                                               |
 |        ####### #     # ####### ####### ####### ######         |
 |        #     # ##    # #          #    #       #     #        |
 |        #     # # #   # #          #    #       #     #        |
 |        #     # #  #  # #####      #    #####   ######         |
 |        #     # #   # # #          #    #       #              |
 |        #     # #    ## #          #    #       #              |
 |        ####### #     # #######    #    ####### #              |
 |                                                               |
 |        Linear-Scaling Ab Initio Total Energy Program          |
 |                                                               |
 |          Release for academic collaborators of ODG            |
 |                                             Version 5.3.2.12  |
 |                                                               |
 +---------------------------------------------------------------+
 |                                                               |
 |  Authors:                                                     |
 |  Jacek Dziedzic, Peter D. Haynes, Nicholas D. M. Hine,        |
 |  Arash. A. Mostofi, Mike C. Payne and Chris-Kriton Skylaris   |
 |                                                               |
 |  Contributors:                                                |
 |  J. Aarons, L. Andrinopoulos, P. W. Avraam, R. A. Bell,       |
 |  A. Bhandari, G. A. Bramley, R. J. Charlton, S. J. Clark,     |
 |  R. J. Clements, G. C. Constantinescu, F. Corsetti,           |
 |  N. Corsini, O. Dieguez, S. M. M. Dubois, K. K. B. Duff,      |
 |  J. M. Escartin, A. Greco, H. Helal, Q. O. Hill, L. P. Lee,   |
 |  J.-H. Li, E. B. Linscott, G. Moynihan, D. D. O`Regan,        |
 |  O. K. Okan, M. J. S. Phipps, C. J. Pickard,                  |
 |  J. C. A. Prentice, M. I. J. Probert, L. E. Ratcliff,         |
 |  M. Robinson, A. Ruiz Serrano, J. S. Spencer, E. W. Tait,     |
 |  G. Teobaldi, D. Turban, V. Vitale, K. A. Wilkinson,          |
 |  C. Weber, J. C. Womack, N. Yeung and T. J. Zuehlsdorff       |
 |                                                               |
 |                                   Copyright (c) 2004-2020     |
 |                                                               |
 |  Please cite:                                                 |
 |  "Introducing ONETEP: Linear-scaling density functional       |
 |   simulations on parallel computers".                         |
 |   C.-K. Skylaris, P. D. Haynes, A. A. Mostofi, M. C. Payne.   |
 |   J. Chem. Phys. 122 084119 (2005).                           |
 |                                                               |
 |          in all publications arising from your use of ONETEP. |
 |                                                               |
 +---------------------------------------------------------------+
 |                                                               |
 |   ONETEP is based on developments described in the following  |
 |   publications:                                               |
 |                                                               |
 |  "Nonorthogonal generalized Wannier function pseudopotential  |
 |   plane-wave method".                                         |
 |   C.-K. Skylaris, A. A. Mostofi, P. D. Haynes, O. Dieguez,    |
 |   M. C. Payne.                                                |
 |   Phys. Rev. B 66 035119 (2002).                              |
 |                                                               |
 |  "Preconditioned iterative minimization for linear-scaling    |
 |   electronic structure calculations".                         |
 |   A. A. Mostofi, P. D. Haynes, C.-K. Skylaris, M. C. Payne.   |
 |   J. Chem. Phys. 119(17), pp.8842-8848 (2003).                |
 |                                                               |
 |  "Total-energy calculations on a real space grid with         |
 |   localized functions and a plane-wave basis".                |
 |   A. A. Mostofi, C.-K. Skylaris, P. D. Haynes, M. C. Payne.   |
 |   Comput. Phys. Commun. 147, pp.788-802 (2002).               |
 |                                                               |
 |  "Accurate kinetic energy evaluation in electronic structure  |
 |   calculations with localized functions on real space grids"  |
 |   C.-K. Skylaris, A. A. Mostofi, P. D. Haynes, C. J. Pickard, |
 |   M. C. Payne.                                                |
 |   Comput. Phys. Commun. 140, pp.315-322 (2001).               |
 |                                                               |
 |  "Accurate ionic forces and geometry optimization in linear-  |
 |   scaling density-functional theory with local orbitals"      |
 |   N. D. M. Hine, M. Robinson, P. D. Haynes, C.-K. Skylaris,   |
 |   M. C. Payne, and A. A. Mostofi.                             |
 |   Phys. Rev. B 83 195102 (2011).                              |
 |                                                               |
 +---------------------------------------------------------------+

Job started: 21-02-2020 18:04 (-0000)
 
Reading parameters from file "3.4613248_GO_manual_4x64graphite.dat" ...

WARNING: "cutoff_energy" not specified, but "psinc_spacing" specified.
         Using the latter to set the KE cutoff energy to  732.32021eV,
         thus *overriding* the default.

... done

If your calculation crashes here, before "Checking processes and threads..."
is displayed, then your stack size is insufficient.
If so, use "ulimit -s unlimited" at runtime.
You can disable this check with "check_stack_size F".

Checking processes and threads...
   Determining the default number of threads...
      No default threads set at compilation time: defaulting to 1.
      OpenMP library call suggests 4 threads.
      Hybrid MPI-OpenMP compilation detected.
      Number of MPI processes > 1.
      OMP_NUM_THREADS environment variable present and
      its value matches the one obtained from the OpenMP library call.
      Using this value as default.
      Default threads: 4
      Default applies to threads_max and threads_num_fftboxes.
      Settings in the input file override this default.
   ... done

   Running with 40 MPI processes.
   There are 10 MPI processes running on the same node as the root process.
   Each MPI process is using: 
               1 threads for simulation cell FFTs.
               1 threads for parallel FFT box operations.
               4 threads for loops over batched FFT box operations.
               4 threads in other parallel regions.
... done

Basic input checks...
Resetting ngwf_cg_rotate to TRUE for EDFT calculations
... done

Reading geometry and species blocks from file "3.4613248_GO_manual_4x64graphite.dat" ...
    
  PSINC grid spacing along a1 set to   0.511215680000a0 from input file.
  PSINC grid spacing along a2 set to   0.531284090000a0 from input file.
  PSINC grid spacing along a3 set to   0.507051880000a0 from input file.
  Number of PPD points along a3 set to 1.  This is 
  the default value, it may have been provided also in the input file.
... done
 Writing xyz coordinates to file "3.4613248_GO_manual_4x64graphite.xyz" ... done


--------------------------------------------------------------------------------
---------------------------------- INPUT FILE ----------------------------------
--------------------------------------------------------------------------------

task : singlepoint                                                              
do_properties : true                                                            
dx_format T                                                                     
edft T                                                                          
output_detail VERBOSE                                                           
write_xyz T                                                                     
xc_functional AVV10S                                                            
PSINC_SPACING 0.51121568 0.53128409 0.50705188                                  
paw T                                                                           
pdos_max_l = 2                                                                  
dos_smear  0.1 eV                                                               
popn_calculate T                                                                
PDOS_PSEUDOATOMIC T                                                             
PDOS_REDUCE_SWS F                                                               
PDOS_CONSTRUCT_BASIS F                                                          
PDOS_LOWDIN T                                                                   
PDOS_ORTH_ATOM_BLOCKS F                                                         
PDOS_LCAO_OPTIMIZE F                                                            
pdos_optados_output T                                                           
homo_plot 0                                                                     
lumo_plot 0                                                                     
homo_dens_plot -1                                                               
lumo_dens_plot -1                                                               
%BLOCK SPECIES                                                                  
C C 6 4 9.0                                                                     
%ENDBLOCK SPECIES                                                               
%BLOCK SPECIES_POT                                                              
C "~/pp/paw/c_pbe_abinit.paw"                                                   
%ENDBLOCK SPECIES_POT                                                           
%BLOCK SPECIES_ATOMIC_SET                                                       
C "SOLVE conf=2s2 2p2"                                                          
%ENDBLOCK SPECIES_ATOMIC_SET                                                    
%BLOCK LATTICE_CART                                                             
32.21  0.00  0.00                                                               
0.00 18.59  0.00                                                                
0.00  0.00 65.41                                                                
%ENDBLOCK LATTICE_CART                                                          
%BLOCK POSITIONS_ABS                                                            
C  0.00  0.00  3.27                                                             
C  0.00  0.00 16.35                                                             
C  0.00  0.00 29.43                                                             
C  0.00  0.00 42.52                                                             
C  0.00  0.00 55.60                                                             
C  0.00  4.65  3.27                                                             
C  0.00  4.65 16.35                                                             
C  0.00  4.65 29.43                                                             
C  0.00  4.65 42.52                                                             
C  0.00  4.65 55.60                                                             
C  4.03  2.32  3.27                                                             
C  4.03  2.32 16.35                                                             
C  4.03  2.32 29.43                                                             
C  4.03  2.32 42.52                                                             
C  4.03  2.32 55.60                                                             
C  8.05  0.00  3.27                                                             
C  8.05  0.00 16.35                                                             
C  8.05  0.00 29.43                                                             
C  8.05  0.00 42.52                                                             
C  8.05  0.00 55.60                                                             
C  0.00  9.30  3.27                                                             
C  0.00  9.30 16.35                                                             
C  0.00  9.30 29.43                                                             
C  0.00  9.30 42.52                                                             
C  0.00  9.30 55.60                                                             
C  4.03  6.97  3.27                                                             
C  4.03  6.97 16.35                                                             
C  4.03  6.97 29.43                                                             
C  4.03  6.97 42.52                                                             
C  4.03  6.97 55.60                                                             
C  8.05  4.65  3.27                                                             
C  8.05  4.65 16.35                                                             
C  8.05  4.65 29.43                                                             
C  8.05  4.65 42.52                                                             
C  8.05  4.65 55.60                                                             
C 12.08  2.32  3.27                                                             
C 12.08  2.32 16.35                                                             
C 12.08  2.32 29.43                                                             
C 12.08  2.32 42.52                                                             
C 12.08  2.32 55.60                                                             
C 16.10  0.00  3.27                                                             
C 16.10  0.00 16.35                                                             
C 16.10  0.00 29.43                                                             
C 16.10  0.00 42.52                                                             
C 16.10  0.00 55.60                                                             
C  0.00 13.95  3.27                                                             
C  0.00 13.95 16.35                                                             
C  0.00 13.95 29.43                                                             
C  0.00 13.95 42.52                                                             
C  0.00 13.95 55.60                                                             
C  4.03 11.62  3.27                                                             
C  4.03 11.62 16.35                                                             
C  4.03 11.62 29.43                                                             
C  4.03 11.62 42.52                                                             
C  4.03 11.62 55.60                                                             
C  8.05  9.30  3.27                                                             
C  8.05  9.30 16.35                                                             
C  8.05  9.30 29.43                                                             
C  8.05  9.30 42.52                                                             
C  8.05  9.30 55.60                                                             
C 12.08  6.97  3.27                                                             
C 12.08  6.97 16.35                                                             
C 12.08  6.97 29.43                                                             
C 12.08  6.97 42.52                                                             
C 12.08  6.97 55.60                                                             
C 16.10  4.65  3.27                                                             
C 16.10  4.65 16.35                                                             
C 16.10  4.65 29.43                                                             
C 16.10  4.65 42.52                                                             
C 16.10  4.65 55.60                                                             
C 20.13  2.32  3.27                                                             
C 20.13  2.32 16.35                                                             
C 20.13  2.32 29.43                                                             
C 20.13  2.32 42.52                                                             
C 20.13  2.32 55.60                                                             
C 24.16  0.00  3.27                                                             
C 24.16  0.00 16.35                                                             
C 24.16  0.00 29.43                                                             
C 24.16  0.00 42.52                                                             
C 24.16  0.00 55.60                                                             
C  4.03 16.27  3.27                                                             
C  4.03 16.27 16.35                                                             
C  4.03 16.27 29.43                                                             
C  4.03 16.27 42.52                                                             
C  4.03 16.27 55.60                                                             
C  8.05 13.95  3.27                                                             
C  8.05 13.95 16.35                                                             
C  8.05 13.95 29.43                                                             
C  8.05 13.95 42.52                                                             
C  8.05 13.95 55.60                                                             
C 12.08 11.62  3.27                                                             
C 12.08 11.62 16.35                                                             
C 12.08 11.62 29.43                                                             
C 12.08 11.62 42.52                                                             
C 12.08 11.62 55.60                                                             
C 16.10  9.30  3.27                                                             
C 16.10  9.30 16.35                                                             
C 16.10  9.30 29.43                                                             
C 16.10  9.30 42.52                                                             
C 16.10  9.30 55.60                                                             
C 20.13  6.97  3.27                                                             
C 20.13  6.97 16.35                                                             
C 20.13  6.97 29.43                                                             
C 20.13  6.97 42.52                                                             
C 20.13  6.97 55.60                                                             
C 24.16  4.65  3.27                                                             
C 24.16  4.65 16.35                                                             
C 24.16  4.65 29.43                                                             
C 24.16  4.65 42.52                                                             
C 24.16  4.65 55.60                                                             
C 28.18  2.32  3.27                                                             
C 28.18  2.32 16.35                                                             
C 28.18  2.32 29.43                                                             
C 28.18  2.32 42.52                                                             
C 28.18  2.32 55.60                                                             
C 12.08 16.27  3.27                                                             
C 12.08 16.27 16.35                                                             
C 12.08 16.27 29.43                                                             
C 12.08 16.27 42.52                                                             
C 12.08 16.27 55.60                                                             
C 16.10 13.95  3.27                                                             
C 16.10 13.95 16.35                                                             
C 16.10 13.95 29.43                                                             
C 16.10 13.95 42.52                                                             
C 16.10 13.95 55.60                                                             
C 20.13 11.62  3.27                                                             
C 20.13 11.62 16.35                                                             
C 20.13 11.62 29.43                                                             
C 20.13 11.62 42.52                                                             
C 20.13 11.62 55.60                                                             
C 24.16  9.30  3.27                                                             
C 24.16  9.30 16.35                                                             
C 24.16  9.30 29.43                                                             
C 24.16  9.30 42.52                                                             
C 24.16  9.30 55.60                                                             
C 28.18  6.97  3.27                                                             
C 28.18  6.97 16.35                                                             
C 28.18  6.97 29.43                                                             
C 28.18  6.97 42.52                                                             
C 28.18  6.97 55.60                                                             
C 20.13 16.27  3.27                                                             
C 20.13 16.27 16.35                                                             
C 20.13 16.27 29.43                                                             
C 20.13 16.27 42.52                                                             
C 20.13 16.27 55.60                                                             
C 24.16 13.95  3.27                                                             
C 24.16 13.95 16.35                                                             
C 24.16 13.95 29.43                                                             
C 24.16 13.95 42.52                                                             
C 24.16 13.95 55.60                                                             
C 28.18 11.62  3.27                                                             
C 28.18 11.62 16.35                                                             
C 28.18 11.62 29.43                                                             
C 28.18 11.62 42.52                                                             
C 28.18 11.62 55.60                                                             
C 28.18 16.27  3.27                                                             
C 28.18 16.27 16.35                                                             
C 28.18 16.27 29.43                                                             
C 28.18 16.27 42.52                                                             
C 28.18 16.27 55.60                                                             
C  0.00  0.00  9.81                                                             
C  0.00  0.00 22.89                                                             
C  0.00  0.00 35.98                                                             
C  0.00  0.00 49.06                                                             
C  0.00  0.00 62.14                                                             
C  0.00  4.65  9.81                                                             
C  0.00  4.65 22.89                                                             
C  0.00  4.65 35.98                                                             
C  0.00  4.65 49.06                                                             
C  0.00  4.65 62.14                                                             
C  4.03  2.32  9.81                                                             
C  4.03  2.32 22.89                                                             
C  4.03  2.32 35.98                                                             
C  4.03  2.32 49.06                                                             
C  4.03  2.32 62.14                                                             
C  8.05  0.00  9.81                                                             
C  8.05  0.00 22.89                                                             
C  8.05  0.00 35.98                                                             
C  8.05  0.00 49.06                                                             
C  8.05  0.00 62.14                                                             
C  0.00  9.30  9.81                                                             
C  0.00  9.30 22.89                                                             
C  0.00  9.30 35.98                                                             
C  0.00  9.30 49.06                                                             
C  0.00  9.30 62.14                                                             
C  4.03  6.97  9.81                                                             
C  4.03  6.97 22.89                                                             
C  4.03  6.97 35.98                                                             
C  4.03  6.97 49.06                                                             
C  4.03  6.97 62.14                                                             
C  8.05  4.65  9.81                                                             
C  8.05  4.65 22.89                                                             
C  8.05  4.65 35.98                                                             
C  8.05  4.65 49.06                                                             
C  8.05  4.65 62.14                                                             
C 12.08  2.32  9.81                                                             
C 12.08  2.32 22.89                                                             
C 12.08  2.32 35.98                                                             
C 12.08  2.32 49.06                                                             
C 12.08  2.32 62.14                                                             
C 16.10  0.00  9.81                                                             
C 16.10  0.00 22.89                                                             
C 16.10  0.00 35.98                                                             
C 16.10  0.00 49.06                                                             
C 16.10  0.00 62.14                                                             
C  0.00 13.95  9.81                                                             
C  0.00 13.95 22.89                                                             
C  0.00 13.95 35.98                                                             
C  0.00 13.95 49.06                                                             
C  0.00 13.95 62.14                                                             
C  4.03 11.62  9.81                                                             
C  4.03 11.62 22.89                                                             
C  4.03 11.62 35.98                                                             
C  4.03 11.62 49.06                                                             
C  4.03 11.62 62.14                                                             
C  8.05  9.30  9.81                                                             
C  8.05  9.30 22.89                                                             
C  8.05  9.30 35.98                                                             
C  8.05  9.30 49.06                                                             
C  8.05  9.30 62.14                                                             
C 12.08  6.97  9.81                                                             
C 12.08  6.97 22.89                                                             
C 12.08  6.97 35.98                                                             
C 12.08  6.97 49.06                                                             
C 12.08  6.97 62.14                                                             
C 16.10  4.65  9.81                                                             
C 16.10  4.65 22.89                                                             
C 16.10  4.65 35.98                                                             
C 16.10  4.65 49.06                                                             
C 16.10  4.65 62.14                                                             
C 20.13  2.32  9.81                                                             
C 20.13  2.32 22.89                                                             
C 20.13  2.32 35.98                                                             
C 20.13  2.32 49.06                                                             
C 20.13  2.32 62.14                                                             
C 24.16  0.00  9.81                                                             
C 24.16  0.00 22.89                                                             
C 24.16  0.00 35.98                                                             
C 24.16  0.00 49.06                                                             
C 24.16  0.00 62.14                                                             
C  4.03 16.27  9.81                                                             
C  4.03 16.27 22.89                                                             
C  4.03 16.27 35.98                                                             
C  4.03 16.27 49.06                                                             
C  4.03 16.27 62.14                                                             
C  8.05 13.95  9.81                                                             
C  8.05 13.95 22.89                                                             
C  8.05 13.95 35.98                                                             
C  8.05 13.95 49.06                                                             
C  8.05 13.95 62.14                                                             
C 12.08 11.62  9.81                                                             
C 12.08 11.62 22.89                                                             
C 12.08 11.62 35.98                                                             
C 12.08 11.62 49.06                                                             
C 12.08 11.62 62.14                                                             
C 16.10  9.30  9.81                                                             
C 16.10  9.30 22.89                                                             
C 16.10  9.30 35.98                                                             
C 16.10  9.30 49.06                                                             
C 16.10  9.30 62.14                                                             
C 20.13  6.97  9.81                                                             
C 20.13  6.97 22.89                                                             
C 20.13  6.97 35.98                                                             
C 20.13  6.97 49.06                                                             
C 20.13  6.97 62.14                                                             
C 24.16  4.65  9.81                                                             
C 24.16  4.65 22.89                                                             
C 24.16  4.65 35.98                                                             
C 24.16  4.65 49.06                                                             
C 24.16  4.65 62.14                                                             
C 28.18  2.32  9.81                                                             
C 28.18  2.32 22.89                                                             
C 28.18  2.32 35.98                                                             
C 28.18  2.32 49.06                                                             
C 28.18  2.32 62.14                                                             
C 12.08 16.27  9.81                                                             
C 12.08 16.27 22.89                                                             
C 12.08 16.27 35.98                                                             
C 12.08 16.27 49.06                                                             
C 12.08 16.27 62.14                                                             
C 16.10 13.95  9.81                                                             
C 16.10 13.95 22.89                                                             
C 16.10 13.95 35.98                                                             
C 16.10 13.95 49.06                                                             
C 16.10 13.95 62.14                                                             
C 20.13 11.62  9.81                                                             
C 20.13 11.62 22.89                                                             
C 20.13 11.62 35.98                                                             
C 20.13 11.62 49.06                                                             
C 20.13 11.62 62.14                                                             
C 24.16  9.30  9.81                                                             
C 24.16  9.30 22.89                                                             
C 24.16  9.30 35.98                                                             
C 24.16  9.30 49.06                                                             
C 24.16  9.30 62.14                                                             
C 28.18  6.97  9.81                                                             
C 28.18  6.97 22.89                                                             
C 28.18  6.97 35.98                                                             
C 28.18  6.97 49.06                                                             
C 28.18  6.97 62.14                                                             
C 20.13 16.27  9.81                                                             
C 20.13 16.27 22.89                                                             
C 20.13 16.27 35.98                                                             
C 20.13 16.27 49.06                                                             
C 20.13 16.27 62.14                                                             
C 24.16 13.95  9.81                                                             
C 24.16 13.95 22.89                                                             
C 24.16 13.95 35.98                                                             
C 24.16 13.95 49.06                                                             
C 24.16 13.95 62.14                                                             
C 28.18 11.62  9.81                                                             
C 28.18 11.62 22.89                                                             
C 28.18 11.62 35.98                                                             
C 28.18 11.62 49.06                                                             
C 28.18 11.62 62.14                                                             
C 28.18 16.27  9.81                                                             
C 28.18 16.27 22.89                                                             
C 28.18 16.27 35.98                                                             
C 28.18 16.27 49.06                                                             
C 28.18 16.27 62.14                                                             
C  1.34  2.32  3.27                                                             
C  1.34  2.32 16.35                                                             
C  1.34  2.32 29.43                                                             
C  1.34  2.32 42.52                                                             
C  1.34  2.32 55.60                                                             
C  5.37  0.00  3.27                                                             
C  5.37  0.00 16.35                                                             
C  5.37  0.00 29.43                                                             
C  5.37  0.00 42.52                                                             
C  5.37  0.00 55.60                                                             
C  1.34  6.97  3.27                                                             
C  1.34  6.97 16.35                                                             
C  1.34  6.97 29.43                                                             
C  1.34  6.97 42.52                                                             
C  1.34  6.97 55.60                                                             
C  5.37  4.65  3.27                                                             
C  5.37  4.65 16.35                                                             
C  5.37  4.65 29.43                                                             
C  5.37  4.65 42.52                                                             
C  5.37  4.65 55.60                                                             
C  9.39  2.32  3.27                                                             
C  9.39  2.32 16.35                                                             
C  9.39  2.32 29.43                                                             
C  9.39  2.32 42.52                                                             
C  9.39  2.32 55.60                                                             
C 13.42  0.00  3.27                                                             
C 13.42  0.00 16.35                                                             
C 13.42  0.00 29.43                                                             
C 13.42  0.00 42.52                                                             
C 13.42  0.00 55.60                                                             
C  1.34 11.62  3.27                                                             
C  1.34 11.62 16.35                                                             
C  1.34 11.62 29.43                                                             
C  1.34 11.62 42.52                                                             
C  1.34 11.62 55.60                                                             
C  5.37  9.30  3.27                                                             
C  5.37  9.30 16.35                                                             
C  5.37  9.30 29.43                                                             
C  5.37  9.30 42.52                                                             
C  5.37  9.30 55.60                                                             
C  9.39  6.97  3.27                                                             
C  9.39  6.97 16.35                                                             
C  9.39  6.97 29.43                                                             
C  9.39  6.97 42.52                                                             
C  9.39  6.97 55.60                                                             
C 13.42  4.65  3.27                                                             
C 13.42  4.65 16.35                                                             
C 13.42  4.65 29.43                                                             
C 13.42  4.65 42.52                                                             
C 13.42  4.65 55.60                                                             
C 17.45  2.32  3.27                                                             
C 17.45  2.32 16.35                                                             
C 17.45  2.32 29.43                                                             
C 17.45  2.32 42.52                                                             
C 17.45  2.32 55.60                                                             
C 21.47  0.00  3.27                                                             
C 21.47  0.00 16.35                                                             
C 21.47  0.00 29.43                                                             
C 21.47  0.00 42.52                                                             
C 21.47  0.00 55.60                                                             
C  1.34 16.27  3.27                                                             
C  1.34 16.27 16.35                                                             
C  1.34 16.27 29.43                                                             
C  1.34 16.27 42.52                                                             
C  1.34 16.27 55.60                                                             
C  5.37 13.95  3.27                                                             
C  5.37 13.95 16.35                                                             
C  5.37 13.95 29.43                                                             
C  5.37 13.95 42.52                                                             
C  5.37 13.95 55.60                                                             
C  9.39 11.62  3.27                                                             
C  9.39 11.62 16.35                                                             
C  9.39 11.62 29.43                                                             
C  9.39 11.62 42.52                                                             
C  9.39 11.62 55.60                                                             
C 13.42  9.30  3.27                                                             
C 13.42  9.30 16.35                                                             
C 13.42  9.30 29.43                                                             
C 13.42  9.30 42.52                                                             
C 13.42  9.30 55.60                                                             
C 17.45  6.97  3.27                                                             
C 17.45  6.97 16.35                                                             
C 17.45  6.97 29.43                                                             
C 17.45  6.97 42.52                                                             
C 17.45  6.97 55.60                                                             
C 21.47  4.65  3.27                                                             
C 21.47  4.65 16.35                                                             
C 21.47  4.65 29.43                                                             
C 21.47  4.65 42.52                                                             
C 21.47  4.65 55.60                                                             
C 25.50  2.32  3.27                                                             
C 25.50  2.32 16.35                                                             
C 25.50  2.32 29.43                                                             
C 25.50  2.32 42.52                                                             
C 25.50  2.32 55.60                                                             
C 29.52  0.00  3.27                                                             
C 29.52  0.00 16.35                                                             
C 29.52  0.00 29.43                                                             
C 29.52  0.00 42.52                                                             
C 29.52  0.00 55.60                                                             
C  9.39 16.27  3.27                                                             
C  9.39 16.27 16.35                                                             
C  9.39 16.27 29.43                                                             
C  9.39 16.27 42.52                                                             
C  9.39 16.27 55.60                                                             
C 13.42 13.95  3.27                                                             
C 13.42 13.95 16.35                                                             
C 13.42 13.95 29.43                                                             
C 13.42 13.95 42.52                                                             
C 13.42 13.95 55.60                                                             
C 17.45 11.62  3.27                                                             
C 17.45 11.62 16.35                                                             
C 17.45 11.62 29.43                                                             
C 17.45 11.62 42.52                                                             
C 17.45 11.62 55.60                                                             
C 21.47  9.30  3.27                                                             
C 21.47  9.30 16.35                                                             
C 21.47  9.30 29.43                                                             
C 21.47  9.30 42.52                                                             
C 21.47  9.30 55.60                                                             
C 25.50  6.97  3.27                                                             
C 25.50  6.97 16.35                                                             
C 25.50  6.97 29.43                                                             
C 25.50  6.97 42.52                                                             
C 25.50  6.97 55.60                                                             
C 29.52  4.65  3.27                                                             
C 29.52  4.65 16.35                                                             
C 29.52  4.65 29.43                                                             
C 29.52  4.65 42.52                                                             
C 29.52  4.65 55.60                                                             
C 17.45 16.27  3.27                                                             
C 17.45 16.27 16.35                                                             
C 17.45 16.27 29.43                                                             
C 17.45 16.27 42.52                                                             
C 17.45 16.27 55.60                                                             
C 21.47 13.95  3.27                                                             
C 21.47 13.95 16.35                                                             
C 21.47 13.95 29.43                                                             
C 21.47 13.95 42.52                                                             
C 21.47 13.95 55.60                                                             
C 25.50 11.62  3.27                                                             
C 25.50 11.62 16.35                                                             
C 25.50 11.62 29.43                                                             
C 25.50 11.62 42.52                                                             
C 25.50 11.62 55.60                                                             
C 29.52  9.30  3.27                                                             
C 29.52  9.30 16.35                                                             
C 29.52  9.30 29.43                                                             
C 29.52  9.30 42.52                                                             
C 29.52  9.30 55.60                                                             
C 25.50 16.27  3.27                                                             
C 25.50 16.27 16.35                                                             
C 25.50 16.27 29.43                                                             
C 25.50 16.27 42.52                                                             
C 25.50 16.27 55.60                                                             
C 29.52 13.95  3.27                                                             
C 29.52 13.95 16.35                                                             
C 29.52 13.95 29.43                                                             
C 29.52 13.95 42.52                                                             
C 29.52 13.95 55.60                                                             
C  2.68  0.00  9.81                                                             
C  2.68  0.00 22.89                                                             
C  2.68  0.00 35.98                                                             
C  2.68  0.00 49.06                                                             
C  2.68  0.00 62.14                                                             
C  2.68  4.65  9.81                                                             
C  2.68  4.65 22.89                                                             
C  2.68  4.65 35.98                                                             
C  2.68  4.65 49.06                                                             
C  2.68  4.65 62.14                                                             
C  6.71  2.32  9.81                                                             
C  6.71  2.32 22.89                                                             
C  6.71  2.32 35.98                                                             
C  6.71  2.32 49.06                                                             
C  6.71  2.32 62.14                                                             
C 10.74  0.00  9.81                                                             
C 10.74  0.00 22.89                                                             
C 10.74  0.00 35.98                                                             
C 10.74  0.00 49.06                                                             
C 10.74  0.00 62.14                                                             
C  2.68  9.30  9.81                                                             
C  2.68  9.30 22.89                                                             
C  2.68  9.30 35.98                                                             
C  2.68  9.30 49.06                                                             
C  2.68  9.30 62.14                                                             
C  6.71  6.97  9.81                                                             
C  6.71  6.97 22.89                                                             
C  6.71  6.97 35.98                                                             
C  6.71  6.97 49.06                                                             
C  6.71  6.97 62.14                                                             
C 10.74  4.65  9.81                                                             
C 10.74  4.65 22.89                                                             
C 10.74  4.65 35.98                                                             
C 10.74  4.65 49.06                                                             
C 10.74  4.65 62.14                                                             
C 14.76  2.32  9.81                                                             
C 14.76  2.32 22.89                                                             
C 14.76  2.32 35.98                                                             
C 14.76  2.32 49.06                                                             
C 14.76  2.32 62.14                                                             
C 18.79  0.00  9.81                                                             
C 18.79  0.00 22.89                                                             
C 18.79  0.00 35.98                                                             
C 18.79  0.00 49.06                                                             
C 18.79  0.00 62.14                                                             
C  2.68 13.95  9.81                                                             
C  2.68 13.95 22.89                                                             
C  2.68 13.95 35.98                                                             
C  2.68 13.95 49.06                                                             
C  2.68 13.95 62.14                                                             
C  6.71 11.62  9.81                                                             
C  6.71 11.62 22.89                                                             
C  6.71 11.62 35.98                                                             
C  6.71 11.62 49.06                                                             
C  6.71 11.62 62.14                                                             
C 10.74  9.30  9.81                                                             
C 10.74  9.30 22.89                                                             
C 10.74  9.30 35.98                                                             
C 10.74  9.30 49.06                                                             
C 10.74  9.30 62.14                                                             
C 14.76  6.97  9.81                                                             
C 14.76  6.97 22.89                                                             
C 14.76  6.97 35.98                                                             
C 14.76  6.97 49.06                                                             
C 14.76  6.97 62.14                                                             
C 18.79  4.65  9.81                                                             
C 18.79  4.65 22.89                                                             
C 18.79  4.65 35.98                                                             
C 18.79  4.65 49.06                                                             
C 18.79  4.65 62.14                                                             
C 22.81  2.32  9.81                                                             
C 22.81  2.32 22.89                                                             
C 22.81  2.32 35.98                                                             
C 22.81  2.32 49.06                                                             
C 22.81  2.32 62.14                                                             
C 26.84  0.00  9.81                                                             
C 26.84  0.00 22.89                                                             
C 26.84  0.00 35.98                                                             
C 26.84  0.00 49.06                                                             
C 26.84  0.00 62.14                                                             
C  6.71 16.27  9.81                                                             
C  6.71 16.27 22.89                                                             
C  6.71 16.27 35.98                                                             
C  6.71 16.27 49.06                                                             
C  6.71 16.27 62.14                                                             
C 10.74 13.95  9.81                                                             
C 10.74 13.95 22.89                                                             
C 10.74 13.95 35.98                                                             
C 10.74 13.95 49.06                                                             
C 10.74 13.95 62.14                                                             
C 14.76 11.62  9.81                                                             
C 14.76 11.62 22.89                                                             
C 14.76 11.62 35.98                                                             
C 14.76 11.62 49.06                                                             
C 14.76 11.62 62.14                                                             
C 18.79  9.30  9.81                                                             
C 18.79  9.30 22.89                                                             
C 18.79  9.30 35.98                                                             
C 18.79  9.30 49.06                                                             
C 18.79  9.30 62.14                                                             
C 22.81  6.97  9.81                                                             
C 22.81  6.97 22.89                                                             
C 22.81  6.97 35.98                                                             
C 22.81  6.97 49.06                                                             
C 22.81  6.97 62.14                                                             
C 26.84  4.65  9.81                                                             
C 26.84  4.65 22.89                                                             
C 26.84  4.65 35.98                                                             
C 26.84  4.65 49.06                                                             
C 26.84  4.65 62.14                                                             
C 30.86  2.32  9.81                                                             
C 30.86  2.32 22.89                                                             
C 30.86  2.32 35.98                                                             
C 30.86  2.32 49.06                                                             
C 30.86  2.32 62.14                                                             
C 14.76 16.27  9.81                                                             
C 14.76 16.27 22.89                                                             
C 14.76 16.27 35.98                                                             
C 14.76 16.27 49.06                                                             
C 14.76 16.27 62.14                                                             
C 18.79 13.95  9.81                                                             
C 18.79 13.95 22.89                                                             
C 18.79 13.95 35.98                                                             
C 18.79 13.95 49.06                                                             
C 18.79 13.95 62.14                                                             
C 22.81 11.62  9.81                                                             
C 22.81 11.62 22.89                                                             
C 22.81 11.62 35.98                                                             
C 22.81 11.62 49.06                                                             
C 22.81 11.62 62.14                                                             
C 26.84  9.30  9.81                                                             
C 26.84  9.30 22.89                                                             
C 26.84  9.30 35.98                                                             
C 26.84  9.30 49.06                                                             
C 26.84  9.30 62.14                                                             
C 30.86  6.97  9.81                                                             
C 30.86  6.97 22.89                                                             
C 30.86  6.97 35.98                                                             
C 30.86  6.97 49.06                                                             
C 30.86  6.97 62.14                                                             
C 22.81 16.27  9.81                                                             
C 22.81 16.27 22.89                                                             
C 22.81 16.27 35.98                                                             
C 22.81 16.27 49.06                                                             
C 22.81 16.27 62.14                                                             
C 26.84 13.95  9.81                                                             
C 26.84 13.95 22.89                                                             
C 26.84 13.95 35.98                                                             
C 26.84 13.95 49.06                                                             
C 26.84 13.95 62.14                                                             
C 30.86 11.62  9.81                                                             
C 30.86 11.62 22.89                                                             
C 30.86 11.62 35.98                                                             
C 30.86 11.62 49.06                                                             
C 30.86 11.62 62.14                                                             
C 30.86 16.27  9.81                                                             
C 30.86 16.27 22.89                                                             
C 30.86 16.27 35.98                                                             
C 30.86 16.27 49.06                                                             
C 30.86 16.27 62.14                                                             
%ENDBLOCK POSITIONS_ABS                                                         

--------------------------------------------------------------------------------
-------------------------------- END INPUT FILE --------------------------------
--------------------------------------------------------------------------------


 
<<<<<<<<<<<<<<<<<<<<<<<<<<<<<<<<< Full system >>>>>>>>>>>>>>>>>>>>>>>>>>>>>>>>>>
<<<<<<<<<<<<<<<<<<<<<<<<<<< PAW Dataset information >>>>>>>>>>>>>>>>>>>>>>>>>>>
File: ~/pp/paw/c_pbe_abinit.paw; rc = 1.25 bohr; shape type =  3; rshape = 1.25 bohr;
  Atomic number:  6;  ionic charge:  4.000000
    Partial Wave 1: l = 0
    Partial Wave 2: l = 0
    Partial Wave 3: l = 1
    Partial Wave 4: l = 1
  Core charge supplied for Nonlinear Core Corrections
<<<<<<<<<<<<<<<<<<<<<<<<<<<<<<<<<<<<<<< >>>>>>>>>>>>>>>>>>>>>>>>>>>>>>>>>>>>>>>

-------------------------- Atom counting information ---------------------------
Symbol    Natoms    Nngwfs    Nprojs
  C        640      2560      5120
.......   ......    ......    ......
Totals:    640      2560      5120
--------------------------------------------------------------------------------

=============================== PSINC grid sizes ===============================
                      Simulation cell:   63 x  35 x 129
                              FFT-box:   63 x  35 x 117
                                  PPD:    7 x   5 x   1
Grid space d1=  0.511269841270a0 (KE cutoff=  29.06054Eh = 790.77748eV)
Grid space d2=  0.531142857143a0 (KE cutoff=  26.92659Eh = 732.70972eV)
Grid space d3=  0.507054263566a0 (KE cutoff=  29.54576Eh = 803.98096eV)
================================================================================
  
WARNING in cell_grid_distribute:
Average of less than one 23-slab per node, so workload cannot be
equally balanced between nodes.

********************* Fourier parallelisation information **********************
       Coarse grid (whole simulation cell) dimensions:     63    35   129
          Real-space ('12') slabs/node (min max mean):      3     4     3
         Recip-space ('23') slabs/node (min max mean):      0     1     0
********************************************************************************

********************* Fourier parallelisation information **********************
       Double grid (whole simulation cell) dimensions:    126    70   258
          Real-space ('12') slabs/node (min max mean):      6     7     6
         Recip-space ('23') slabs/node (min max mean):      1     2     1
********************************************************************************

Atom SCF Calculation for C  : Z (AE atom) =   6 : Z (PS atom) =   4
Config String: 2s2 2p2
Orbitals (num,occ):  2     2.00 2.00
Orbitals   (num,l):  2        0    1
Real-space Grid (nr,dr,rmax): 1293    0.0069659443    9.0000000000
Spherical Bessel Basis (nsws,lmax,cutoff):   37    2  161.4736382572
Confining potential (l,width,scale):  0    3.0000000000  100.0000000000
Confining potential (l,width,scale):  1    3.0000000000  100.0000000000
  1         -5.4129360987   -1.2444937266    4.5135257941   -1.5420271367
  2         -5.3444202281   -1.3377187790    4.4131101426   -1.5071921700
  3         -5.3525226456   -1.3566567794    4.3924752240   -1.5004938544
  4         -5.3561013121   -1.3623552809    4.3862114699   -1.4986199617
  5         -5.3580093800   -1.3653574582    4.3828991843   -1.4976654093
  6         -5.3590276761   -1.3669475005    4.3811409016   -1.4971696795
  7         -5.3595688314   -1.3677934914    4.3802040659   -1.4969088858
  8         -5.3598556216   -1.3682449178    4.3797036984   -1.4967706290
  9         -5.3600074081   -1.3684862338    4.3794360452   -1.4966970063
 10         -5.3600877081   -1.3686153812    4.3792927313   -1.4966576988
 11         -5.3601301919   -1.3686845537    4.3792159394   -1.4966366788
 12         -5.3601526758   -1.3687216261    4.3791747687   -1.4966254262
 13         -5.3601645804   -1.3687415049    4.3791526850   -1.4966193980
 14         -5.3601708871   -1.3687521691    4.3791408341   -1.4966161667
 15         -5.3601742301   -1.3687578926    4.3791344719   -1.4966144337
 16         -5.3601760032   -1.3687609656    4.3791310549   -1.4966135039
 17         -5.3601769442   -1.3687626162    4.3791292190   -1.4966130048
 18         -5.3601774440   -1.3687635032    4.3791282322   -1.4966127369
 19         -5.3601777096   -1.3687639799    4.3791277016   -1.4966125929
 20         -5.3601778508   -1.3687642363    4.3791274162   -1.4966125155
 21         -5.3601779259   -1.3687643743    4.3791272626   -1.4966124740
Atom SCF converged after  21 iterations to a total energy of     -5.36017793

Determining parallel strategy ...
... using space-filling curve
... NGWF load balancing: max     64;  min     64;  average     64
... Projector load balancing: max    128;  min    128;  average    128
... done
Calculating Ewald energy ...
              Ewald: real-space energy =    9490.277725
        Ewald: reciprocal-space energy =       0.131735
         Ewald: (sum_charge)**2 Energy =   11196.574884
         Ewald: (sum_charge**2) Energy =     885.166966
                          Ewald Energy =   -2591.332390
Basis initialisation ...... NGWF spheres initialised
... Projector spheres initialised
... NGWF tight boxes initialised
... Projector tight boxes initialised
... Tight-boxes gathered
... NGWF basis size (local,global):     693268  27894784
... PAW projector initialisation
... done

============================= Charge Augmentation ==============================
                           Aug box size:   11 x  11 x  11
================================================================================

========================== Sparse matrix information ===========================
                        Overlap matrix filling:  44.38%
                        Density kernel filling: 100.00%
              NGWF-Proj overlap matrix filling:  12.19%
                    Aug Overlap matrix filling:  47.03%
                    Hamiltonian matrix filling:  47.03%
                  NGWF diagonal matrix filling:   0.16%
                             KS matrix filling: 100.00% 
                           KSKS matrix filling: 100.00% 
================================================================================

Sparse matrix initialisation ... done
NGWF initialisation ...... done
============ Calculation of NGWF S^-1 using Hotelling algorithm ================ 
         Iteration  |  Frobenius norm and Maximum abs value    (of I-S*S_n^-1)   
               1       0.49092343E+02     0.97649934E+00
               2       0.47886216E+02     0.95480196E+00
               3       0.46070162E+02     0.91590191E+00
               4       0.43708358E+02     0.85153453E+00
               5       0.40880315E+02     0.75580786E+00
               6       0.37587242E+02     0.68189776E+00
               7       0.34145612E+02     0.63438315E+00
               8       0.30885058E+02     0.59526180E+00
               9       0.27462200E+02     0.55412520E+00
              10       0.23173979E+02     0.49030965E+00
              11       0.17548608E+02     0.38729856E+00
              12       0.10885060E+02     0.24672009E+00
              13       0.47611312E+01     0.10621473E+00
              14       0.10863354E+01     0.22409517E-01
              15       0.67162255E-01     0.12169904E-02
              16       0.32095655E-03     0.45521803E-05
              17       0.10897555E-07     0.96619379E-10
              18       0.83127233E-13     0.48849813E-14
================================================================================
Calculating core density ...
================================= Core Density =================================
               Core den box size:   21 x  21 x  21
================================================================================
 ... done
Up spin density kernel initialisation ...... done

Writing density kernel to file "3.4613248_GO_manual_4x64graphite.dkn" ... done

>>> Optimising kernel for current NGWFs:

--------------------------- Ensemble-DFT optimisation --------------------------
Running ScaLAPACK on   40 processor(s).

--------------------------------------------------------------------------------
  Iter                              Commutator    Free_energy(A=E-TS)     DeltaA
#    0                          0.000034442071   -3617.67605205917607  -3.62E+03

Step                       =       0.381966011250
Energy                     =   -3617.676023288976
Entropy (-TS)              =      -0.000028770004
Free energy (A=E-TS)       =   -3617.676052059176
Est. 0K Energy 0.5*(E+A)   =   -3617.676037674076
Residual Non-orthogonality =       0.000000000000
Residual N_electrons       =      -0.000000000196

Spin          Integrated_Ne            Fermi_level     Delta_Fermi_level
   1      2560.000000000975         0.201092471080              2.01E-01

                           Spin 1          
     Orb      H-eigenvalues     Occupancies
       1 |    -0.5250920230    1.0000000000 | 
                          ------
    1276 |     0.1667790473    0.9999803089 | 
    1277 |     0.1673911915    0.9999761099 | 
    1278 |     0.1674103898    0.9999759646 | 
    1279 |     0.1677955544    0.9999728562 | 
    1280 |     0.1684229111    0.9999669095 | 
                 - Gap at zero temperature -
    1281 |     0.2364388161    0.0000142108 | 
    1282 |     0.2364548395    0.0000141391 | 
    1283 |     0.2365166343    0.0000138659 | 
    1284 |     0.2366536478    0.0000132788 | 
    1285 |     0.2366554246    0.0000132713 | 
                          ------
    2560 |     1.0422709418    0.0000000000 | 

                       |  Abs_value |  Threshold | Converged
     Delta_Free_energy |   3.62E+03 |   1.00E-06 |        No
     Delta_Energy      |   3.62E+03 |   1.00E-04 |        No
     Delta_Entropy     |   2.88E-05 |   1.00E-04 |       Yes
     Commutator        |   3.44E-05 |   1.00E-05 |        No
     Delta_Fermi_level |   2.01E-01 |   1.00E-03 |        No

  Line search of the free energy minimum:
  Step_type        Step             Free_energy   Predicted_free_energy
.   Initial    0.000000    -3617.67605205917607
.    Trial1    0.381966    -3617.67740797926490
.    Trial2    0.618034    -3617.67744673269317
. Quadratic    0.514983    -3617.67750501475848    -3617.67750490753451

--------------------------------------------------------------------------------
  Iter                              Commutator    Free_energy(A=E-TS)     DeltaA
#    1                          0.000019483428   -3617.67750501475848  -1.45E-03

Step                       =       0.514983357970
Energy                     =   -3617.677475589408
Entropy (-TS)              =      -0.000029425507
Free energy (A=E-TS)       =   -3617.677505014758
Est. 0K Energy 0.5*(E+A)   =   -3617.677490302083
Residual Non-orthogonality =       0.000000000000
Residual N_electrons       =       0.000000000156

Spin          Integrated_Ne            Fermi_level     Delta_Fermi_level
   1      2559.999999999219         0.200400603380             -6.92E-04

                           Spin 1          
     Orb      H-eigenvalues     Occupancies
       1 |    -0.5257998446    1.0000000000 | 
                          ------
    1276 |     0.1662405996    0.9999793314 | 
    1277 |     0.1667141333    0.9999759979 | 
    1278 |     0.1667295167    0.9999758811 | 
    1279 |     0.1672660139    0.9999714286 | 
    1280 |     0.1677510444    0.9999666999 | 
                 - Gap at zero temperature -
    1281 |     0.2356313117    0.0000147393 | 
    1282 |     0.2356577548    0.0000146167 | 
    1283 |     0.2357177494    0.0000143424 | 
    1284 |     0.2358273823    0.0000138544 | 
    1285 |     0.2358430424    0.0000137861 | 
                          ------
    2560 |     1.0419437207    0.0000000000 | 

                       |  Abs_value |  Threshold | Converged
     Delta_Free_energy |   1.45E-03 |   1.00E-06 |        No
     Delta_Energy      |   1.45E-03 |   1.00E-04 |        No
     Delta_Entropy     |   6.56E-07 |   1.00E-04 |       Yes
     Commutator        |   1.95E-05 |   1.00E-05 |        No
     Delta_Fermi_level |   6.92E-04 |   1.00E-03 |       Yes

  Line search of the free energy minimum:
  Step_type        Step             Free_energy   Predicted_free_energy
.   Initial    0.000000    -3617.67750501475848
.    Trial1    0.514983    -3617.67757202745952
.    Trial2    0.700243    -3617.67697936118975
. Quadratic    0.271176    -3617.67785444300625    -3617.67785463727614

--------------------------------------------------------------------------------
  Iter                              Commutator    Free_energy(A=E-TS)     DeltaA
#    2                          0.000011429619   -3617.67785444300625  -3.49E-04

Step                       =       0.271176483091
Energy                     =   -3617.677824887393
Entropy (-TS)              =      -0.000029555557
Free energy (A=E-TS)       =   -3617.677854443006
Est. 0K Energy 0.5*(E+A)   =   -3617.677839665200
Residual Non-orthogonality =       0.000000000000
Residual N_electrons       =      -0.000000000056

Spin          Integrated_Ne            Fermi_level     Delta_Fermi_level
   1      2560.000000000280         0.200203933262             -1.97E-04

                           Spin 1          
     Orb      H-eigenvalues     Occupancies
       1 |    -0.5259973904    1.0000000000 | 
                          ------
    1276 |     0.1660353580    0.9999793873 | 
    1277 |     0.1665497345    0.9999757521 | 
    1278 |     0.1665653464    0.9999756323 | 
    1279 |     0.1670576588    0.9999715338 | 
    1280 |     0.1675837188    0.9999663899 | 
                 - Gap at zero temperature -
    1281 |     0.2354299138    0.0000147613 | 
    1282 |     0.2354562367    0.0000146391 | 
    1283 |     0.2355181157    0.0000143559 | 
    1284 |     0.2356346753    0.0000138371 | 
    1285 |     0.2356515289    0.0000137636 | 
                          ------
    2560 |     1.0418364312    0.0000000000 | 

                       |  Abs_value |  Threshold | Converged
     Delta_Free_energy |   3.49E-04 |   1.00E-06 |        No
     Delta_Energy      |   3.49E-04 |   1.00E-04 |        No
     Delta_Entropy     |   1.30E-07 |   1.00E-04 |       Yes
     Commutator        |   1.14E-05 |   1.00E-05 |        No
     Delta_Fermi_level |   1.97E-04 |   1.00E-03 |       Yes

  Line search of the free energy minimum:
  Step_type        Step             Free_energy   Predicted_free_energy
.   Initial    0.000000    -3617.67785444300625
.    Trial1    0.271176    -3617.67797368435049
.    Trial2    0.549562    -3617.67793291579028
. Quadratic    0.341719    -3617.67797899864081    -3617.67797899197285

--------------------------------------------------------------------------------
  Iter                              Commutator    Free_energy(A=E-TS)     DeltaA
#    3                          0.000007993517   -3617.67797899864081  -1.25E-04

Step                       =       0.341718616143
Energy                     =   -3617.677949316119
Entropy (-TS)              =      -0.000029682067
Free energy (A=E-TS)       =   -3617.677978998641
Est. 0K Energy 0.5*(E+A)   =   -3617.677964157380
Residual Non-orthogonality =       0.000000000000
Residual N_electrons       =      -0.000000000454

Spin          Integrated_Ne            Fermi_level     Delta_Fermi_level
   1      2560.000000002271         0.200021841611             -1.82E-04

                           Spin 1          
     Orb      H-eigenvalues     Occupancies
       1 |    -0.5261742198    1.0000000000 | 
                          ------
    1276 |     0.1658605440    0.9999793399 | 
    1277 |     0.1663865726    0.9999756067 | 
    1278 |     0.1664022128    0.9999754859 | 
    1279 |     0.1668817411    0.9999714783 | 
    1280 |     0.1674194852    0.9999661998 | 
                 - Gap at zero temperature -
    1281 |     0.2352349410    0.0000148215 | 
    1282 |     0.2352602713    0.0000147034 | 
    1283 |     0.2353269595    0.0000143970 | 
    1284 |     0.2354437498    0.0000138757 | 
    1285 |     0.2354619002    0.0000137964 | 
                          ------
    2560 |     1.0417485576    0.0000000000 | 

                       |  Abs_value |  Threshold | Converged
     Delta_Free_energy |   1.25E-04 |   1.00E-06 |        No
     Delta_Energy      |   1.24E-04 |   1.00E-04 |        No
     Delta_Entropy     |   1.27E-07 |   1.00E-04 |       Yes
     Commutator        |   7.99E-06 |   1.00E-05 |       Yes
     Delta_Fermi_level |   1.82E-04 |   1.00E-03 |       Yes

  Line search of the free energy minimum:
  Step_type        Step             Free_energy   Predicted_free_energy
.   Initial    0.000000    -3617.67797899864081
.    Trial1    0.341719    -3617.67803077541248
.    Trial2    0.593160    -3617.67795291225502
. Quadratic    0.268298    -3617.67803496172928    -3617.67803496663191

--------------------------------------------------------------------------------
  Iter                              Commutator    Free_energy(A=E-TS)     DeltaA
#    4                          0.000005353648   -3617.67803496172928  -5.60E-05

Step                       =       0.268298034341
Energy                     =   -3617.678005210601
Entropy (-TS)              =      -0.000029750958
Free energy (A=E-TS)       =   -3617.678034961729
[...]
 C   160 -- C   385       -0.10      5.37000
 C   159 -- C   384       -0.10      5.37000
 C   158 -- C   383       -0.10      5.37000
 C   157 -- C   382       -0.10      5.37000
 C   156 -- C   381       -0.10      5.37000
 C   155 -- C   355       -0.10      5.37000
 C   154 -- C   354       -0.10      5.37000
 C   153 -- C   353       -0.10      5.37000
 C   152 -- C   352       -0.10      5.37000
 C   151 -- C   351       -0.10      5.37000
 C   140 -- C   335       -0.10      5.37000
 C   139 -- C   334       -0.10      5.37000
 C   138 -- C   333       -0.10      5.37000
 C   137 -- C   332       -0.10      5.37000
 C   136 -- C   331       -0.10      5.37000
 C   115 -- C   325       -0.10      5.37000
 C   114 -- C   324       -0.10      5.37000
 C   113 -- C   323       -0.10      5.37000
 C   112 -- C   322       -0.10      5.37000
 C   111 -- C   321       -0.10      5.37000
 C   285 -- C   580       -0.10      5.37202
 C   284 -- C   579       -0.10      5.37202
 C   283 -- C   578       -0.10      5.37202
 C   282 -- C   577       -0.10      5.37202
 C   281 -- C   576       -0.10      5.37202
 C   260 -- C   605       -0.10      5.37202
 C   259 -- C   604       -0.10      5.37202
 C   258 -- C   603       -0.10      5.37202
 C   257 -- C   602       -0.10      5.37202
 C   256 -- C   601       -0.10      5.37202
 C   219 -- C   569       -0.10      5.37202
 C   218 -- C   568       -0.10      5.37202
 C   217 -- C   567       -0.10      5.37202
 C   216 -- C   566       -0.10      5.37202
 C   205 -- C   550       -0.10      5.37202
 C   204 -- C   549       -0.10      5.37202
 C   203 -- C   548       -0.10      5.37202
 C   202 -- C   547       -0.10      5.37202
 C   201 -- C   546       -0.10      5.37202
 C   150 -- C   440       -0.10      5.37202
 C   149 -- C   439       -0.10      5.37202
 C   148 -- C   438       -0.10      5.37202
 C   147 -- C   437       -0.10      5.37202
 C   146 -- C   436       -0.10      5.37202
 C   135 -- C   460       -0.10      5.37202
 C   134 -- C   459       -0.10      5.37202
 C   133 -- C   458       -0.10      5.37202
 C   132 -- C   457       -0.10      5.37202
 C   131 -- C   456       -0.10      5.37202
 C   260 -- C   550       -0.10      5.37202
 C   259 -- C   549       -0.10      5.37202
 C   258 -- C   548       -0.10      5.37202
 C   257 -- C   547       -0.10      5.37202
 C   256 -- C   546       -0.10      5.37202
 C   250 -- C   540       -0.10      5.37202
 C   249 -- C   539       -0.10      5.37202
 C   248 -- C   538       -0.10      5.37202
 C   247 -- C   537       -0.10      5.37202
 C   246 -- C   536       -0.10      5.37202
 C   230 -- C   580       -0.10      5.37202
 C   230 -- C   525       -0.10      5.37202
 C   229 -- C   579       -0.10      5.37202
 C   229 -- C   524       -0.10      5.37202
 C   228 -- C   578       -0.10      5.37202
 C   228 -- C   523       -0.10      5.37202
 C   227 -- C   577       -0.10      5.37202
 C   227 -- C   522       -0.10      5.37202
 C   226 -- C   576       -0.10      5.37202
 C   226 -- C   521       -0.10      5.37202
 C   220 -- C   570       -0.10      5.37202
 C    95 -- C   425       -0.10      5.37202
 C    94 -- C   424       -0.10      5.37202
 C    93 -- C   423       -0.10      5.37202
 C    92 -- C   422       -0.10      5.37202
 C    91 -- C   421       -0.10      5.37202
 C   120 -- C   395       -0.10      5.37202
 C   119 -- C   394       -0.10      5.37202
 C   118 -- C   393       -0.10      5.37202
 C   117 -- C   392       -0.10      5.37202
 C   116 -- C   391       -0.10      5.37202
 C   106 -- C   436       -0.10      5.37202
 C   220 -- C   515       -0.10      5.37202
 C   219 -- C   514       -0.10      5.37202
 C   106 -- C   376       -0.10      5.37202
 C   218 -- C   513       -0.10      5.37202
 C   217 -- C   512       -0.10      5.37202
 C   216 -- C   511       -0.10      5.37202
 C    95 -- C   365       -0.10      5.37202
 C    94 -- C   364       -0.10      5.37202
 C   195 -- C   540       -0.10      5.37202
 C   195 -- C   500       -0.10      5.37202
 C    93 -- C   363       -0.10      5.37202
 C   194 -- C   539       -0.10      5.37202
 C   194 -- C   499       -0.10      5.37202
 C   193 -- C   538       -0.10      5.37202
 C   193 -- C   498       -0.10      5.37202
 C    92 -- C   362       -0.10      5.37202
 C   192 -- C   537       -0.10      5.37202
 C   192 -- C   497       -0.10      5.37202
 C   191 -- C   536       -0.10      5.37202
 C   191 -- C   496       -0.10      5.37202
 C    91 -- C   361       -0.10      5.37202
 C    85 -- C   355       -0.10      5.37202
 C   180 -- C   515       -0.10      5.37202
 C    84 -- C   354       -0.10      5.37202
 C   179 -- C   514       -0.10      5.37202
 C    83 -- C   353       -0.10      5.37202
 C   178 -- C   513       -0.10      5.37202
 C   177 -- C   512       -0.10      5.37202
 C    82 -- C   352       -0.10      5.37202
 C   176 -- C   511       -0.10      5.37202
 C    81 -- C   351       -0.10      5.37202
 C    80 -- C   410       -0.10      5.37202
 C    79 -- C   409       -0.10      5.37202
 C    78 -- C   408       -0.10      5.37202
 C    77 -- C   407       -0.10      5.37202
 C    76 -- C   406       -0.10      5.37202
 C    65 -- C   395       -0.10      5.37202
 C    64 -- C   394       -0.10      5.37202
 C    63 -- C   393       -0.10      5.37202
 C   135 -- C   410       -0.10      5.37202
 C    62 -- C   392       -0.10      5.37202
 C   134 -- C   409       -0.10      5.37202
 C   133 -- C   408       -0.10      5.37202
 C    61 -- C   391       -0.10      5.37202
 C   132 -- C   407       -0.10      5.37202
 C   131 -- C   406       -0.10      5.37202
 C    55 -- C   385       -0.10      5.37202
 C    54 -- C   384       -0.10      5.37202
 C    53 -- C   383       -0.10      5.37202
 C    52 -- C   382       -0.10      5.37202
 C   110 -- C   440       -0.10      5.37202
 C    51 -- C   381       -0.10      5.37202
 C   110 -- C   380       -0.10      5.37202
 C   109 -- C   439       -0.10      5.37202
 C   109 -- C   379       -0.10      5.37202
 C   108 -- C   438       -0.10      5.37202
 C   108 -- C   378       -0.10      5.37202
 C   107 -- C   437       -0.10      5.37202
 C   107 -- C   377       -0.10      5.37202
 C    40 -- C   365       -0.10      5.37202
 C    39 -- C   364       -0.10      5.37202
 C    38 -- C   363       -0.10      5.37202
 C    37 -- C   362       -0.10      5.37202
 C    36 -- C   361       -0.10      5.37202
 C    65 -- C   345       -0.10      5.37202
 C    64 -- C   344       -0.10      5.37202
 C    30 -- C   355       -0.10      5.37202
 C    63 -- C   343       -0.10      5.37202
 C    62 -- C   342       -0.10      5.37202
 C    29 -- C   354       -0.10      5.37202
 C    61 -- C   341       -0.10      5.37202
 C    28 -- C   353       -0.10      5.37202
 C    27 -- C   352       -0.10      5.37202
 C    26 -- C   351       -0.10      5.37202
 C    55 -- C   335       -0.10      5.37202
 C    54 -- C   334       -0.10      5.37202
 C    53 -- C   333       -0.10      5.37202
 C    52 -- C   332       -0.10      5.37202
 C    51 -- C   331       -0.10      5.37202
 C    11 -- C   331       -0.10      5.37202
 C    15 -- C   335       -0.10      5.37202
 C    30 -- C   325       -0.10      5.37202
 C    14 -- C   334       -0.10      5.37202
 C    29 -- C   324       -0.10      5.37202
 C    28 -- C   323       -0.10      5.37202
 C    13 -- C   333       -0.10      5.37202
 C    27 -- C   322       -0.10      5.37202
 C    26 -- C   321       -0.10      5.37202
 C    12 -- C   332       -0.10      5.37202
 C    23 -- C   478       -0.10      5.37202
 C    49 -- C   469       -0.10      5.37202
 C    48 -- C   468       -0.10      5.37202
 C    47 -- C   467       -0.10      5.37202
 C    22 -- C   477       -0.10      5.37202
 C    46 -- C   466       -0.10      5.37202
 C    21 -- C   476       -0.10      5.37202
 C    25 -- C   480       -0.10      5.37202
 C    24 -- C   479       -0.10      5.37202
 C    50 -- C   470       -0.10      5.37202
 C    24 -- C   449       -0.10      5.37202
 C     6 -- C   416       -0.10      5.37202
 C    23 -- C   448       -0.10      5.37202
 C    22 -- C   447       -0.10      5.37202
 C    10 -- C   470       -0.10      5.37202
 C     5 -- C   450       -0.10      5.37202
 C    21 -- C   446       -0.10      5.37202
 C    10 -- C   420       -0.10      5.37202
 C     9 -- C   469       -0.10      5.37202
 C     9 -- C   419       -0.10      5.37202
 C     8 -- C   468       -0.10      5.37202
 C     4 -- C   449       -0.10      5.37202
 C     8 -- C   418       -0.10      5.37202
 C     2 -- C   447       -0.10      5.37202
 C     7 -- C   467       -0.10      5.37202
 C     7 -- C   417       -0.10      5.37202
 C     1 -- C   446       -0.10      5.37202
 C     6 -- C   466       -0.10      5.37202
 C    25 -- C   450       -0.10      5.37202
 C     3 -- C   448       -0.10      5.37202
 C   215 -- C   635       -0.10      5.38000
 C   214 -- C   634       -0.10      5.38000
 C   213 -- C   633       -0.10      5.38000
 C   212 -- C   632       -0.10      5.38000
 C   211 -- C   631       -0.10      5.38000
 C   190 -- C   620       -0.10      5.38000
 C   189 -- C   619       -0.10      5.38000
 C   188 -- C   618       -0.10      5.38000
 C   187 -- C   617       -0.10      5.38000
 C   186 -- C   616       -0.10      5.38000
 C   175 -- C   595       -0.10      5.38000
 C   174 -- C   594       -0.10      5.38000
 C   173 -- C   593       -0.10      5.38000
 C   172 -- C   592       -0.10      5.38000
 C   171 -- C   591       -0.10      5.38000
 C   245 -- C   640       -0.10      5.38000
 C   244 -- C   639       -0.10      5.38000
 C   243 -- C   638       -0.10      5.38000
 C   242 -- C   637       -0.10      5.38000
 C   241 -- C   636       -0.10      5.38000
==================================================


=================== Orbital energy and occupancy information ===================

      Total number of orbitals:    2560
        Occupancy sum (kernel):    1280.000000000
   Occupancy sum (eigenvalues):    1280.000000000
                 HOMO-LUMO gap:       0.064250463 Eh
                 Mid-gap level:       0.247055155 Eh

                        Orbital | Energy (Eh) | Occupancy
                            1    -0.474530641   1.0000000
                        .......   ...........   .........
                         1271     0.209667302   0.9999888
                         1272     0.209681025   0.9999888
                         1273     0.210141689   0.9999870
                         1274     0.210155405   0.9999869
                         1275     0.213440621   0.9999632
                         1276     0.213493509   0.9999625
                         1277     0.213905439   0.9999573
                         1278     0.213958147   0.9999566
                         1279     0.214473104   0.9999490
                         1280     0.214929923   0.9999410
                        ....... -- gap at 0K -- .........
                         1281     0.279180386   0.0000261
                         1282     0.279186830   0.0000261
                         1283     0.279424084   0.0000242
                         1284     0.279430502   0.0000241
                         1285     0.279792368   0.0000216
                         1286     0.279831649   0.0000213
                         1287     0.280049599   0.0000199
                         1288     0.280088974   0.0000196
                         1289     0.280266983   0.0000186
                         1290     0.280302452   0.0000183
                        .......   ...........   .........
                         2560     1.146269838   0.0000000

================================================================================

===================== Writing canonical molecular orbitals =====================
| Orbital  Energy (eV)  Norm     |
| HOMO      5.84854081  1.000000 | Writing "3.4613248_GO_manual_4x64graphite_HOMO.cube" ... done
Writing "3.4613248_GO_manual_4x64graphite_HOMO.dx" ... done
| LUMO      7.59688487  1.000000 | Writing "3.4613248_GO_manual_4x64graphite_LUMO.cube" ... done
Writing "3.4613248_GO_manual_4x64graphite_LUMO.dx" ... done
================================================================================
 
===================== Density of States (DOS) calculation ======================
Writing "3.4613248_GO_manual_4x64graphite_DOS.txt" ...  done
================================================================================
 
Writing bands to file "3.4613248_GO_manual_4x64graphite.val_bands" ... done
 
================ Projected Density of States (pDOS) calculation ================
 
Constructing AM resolved functions  ...... done
Writing NGWF plot files in formats: CUBE DX ...  done
 
Performing overlap integrals ...  done
 
Computing pDOS weights ...  done
 
All bands spilling parameter =   3.62 %
Occupancy-weighted spilling parameter =   0.87 %
 
 => Outputting data for OptaDOS <=
 
Writing pDOS weights to file "3.4613248_GO_manual_4x64graphite.val_pdos_bin" ... done
 
Writing band gradients to file "3.4613248_GO_manual_4x64graphite.val_dome_bin" ... done
 
Writing Castep output cell file to "3.4613248_GO_manual_4x64graphite-out.cell" ... done
 
 => Computing Gaussian smeared pDOS <= 
Writing "3.4613248_GO_manual_4x64graphite_PDOS.txt" ...  done
 
 => Computing Occupancy-weighted Gaussian smeared pDOS <= 
Writing "3.4613248_GO_manual_4x64graphite_occ_PDOS.txt" ...  done
  => Band centres: 
 S band centre of group 1:  -13.739644 eV
 P band centre of group 1:   -6.670592 eV
  Band centres done. <=
  => Integrated number of electrons in each AM band: 
 S num electrons of group 1:  571.506364
 P num electrons of group 1: 1966.299865
  Integrated number of electrons done. <=
================================================================================

------------------------------ TIMING INFORMATION ------------------------------
AVERAGE TIME:    3568.533s on     40 node(s)                                    
TOTAL TIME:      3568.534s on     40 node(s)                                    
================= AVERAGE TIMINGS FROM ALL NODES (CUMULATIVE) ==================
|| TAG                                    #calls    cpu time   %total  Gflops ||
|| work_imbalance                       :     1        0.00s   0.000%  ------ ||
|| paw_tcore_hartree_on_grid            :     1        0.00s   0.000%  ------ ||
|| paw_tcore_density                    :     1        0.01s   0.000%  ------ ||
|| paw_sphere_density_on_grid           :     1        0.01s   0.000%  ------ ||
|| sparse_set_to_garbage                :   159        0.03s   0.001%  ------ ||
|| paw_dij_hartree                      :   323        0.04s   0.001%  ------ ||
|| pseudo_make_structure_factor         :     1        0.05s   0.001%  ------ ||
|| basis_extract_function_from_box      :  1792        0.07s   0.002%  ------ ||
|| paw_species_calc_proj_prec_mat       :     1        0.12s   0.003%  ------ ||
|| paw_dataset_init                     :     1        0.15s   0.004%  ------ ||
|| density_init_guess_real              :     1        0.17s   0.005%  ------ ||
|| ngwfs_initialise_from_radial         :     2        0.66s   0.019%  ------ ||
|| sparse_init                          :     1        0.90s   0.025%  ------ ||
|| dense_normal_eigensolve              :     1        0.95s   0.027%  ------ ||
|| restart_kernel_write                 :    15        0.96s   0.027%  ------ ||
|| hartree_on_grid                      :   242        1.38s   0.039%  ------ ||
|| ewald_calculate_energy               :     1        2.52s   0.071%  ------ ||
|| projectors_init_fftbox_recip         :   141        2.70s   0.076%  ------ ||
|| fourier_apply_box_pair               :  2656        4.40s   0.123% 560.264 ||
|| basis_copy_function_to_box           : 23040        4.94s   0.138%  ------ ||
|| augmentation_screen_dij              :   247        5.37s   0.150%  ------ ||
|| sw_init                              :     1        6.73s   0.189%  ------ ||
|| sparse_embed_hotelling_invert_embed  :    27        7.57s   0.212%  ------ ||
|| ngwf_gradient_coeffs                 :    14        9.91s   0.278%  ------ ||
|| cell_grid_extract_box_real           :  9724       12.90s   0.361%  ------ ||
|| sparse_trace                         :  2922       12.98s   0.364%  ------ ||
|| fourier_apply_cell_backward          :  7473       16.09s   0.451%  56.384 ||
|| fourier_apply_cell_forward           :  6990       18.11s   0.508%  46.858 ||
|| cell_grid_deposit_box_real           : 31152       18.95s   0.531%  ------ ||
|| paw_dij_xc                           :   323       25.69s   0.720%  ------ ||
|| aug_nonlocal_mat                     :   309       35.66s   0.999%  ------ ||
|| density_fftbox_deposit_to_cell       : 15488       37.84s   1.060%  ------ ||
|| augmentation_density_on_grid         :   242       43.93s   1.231%  ------ ||
|| eigenstates_pdos                     :     1       46.50s   1.303%  ------ ||
|| hamiltonian_energy_components        :     3       48.56s   1.361%  ------ ||
|| eigenstates_calculate                :     1       50.27s   1.409%  ------ ||
|| function_ops_brappd_ketppd           :    56       52.20s   1.463%  ------ ||
|| projectors_func_ovlp_box             :    28       61.45s   1.722%  ------ ||
|| xc_energy_potential                  :   241       74.70s   2.093%  ------ ||
|| nlxc_vdw_energy                      :   482       76.56s   2.146%  ------ ||
|| properties_calculate                 :     1       91.14s   2.554%  ------ ||
|| integrals_kinetic                    :    27       93.31s   2.615%  ------ ||
|| dense_eigensolve                     :   211       95.45s   2.675%  ------ ||
|| potential_apply_to_ngwf_batch        :   304      117.08s   3.281%  ------ ||
|| sparse_product                       :  2970      120.83s   3.386%  ------ ||
|| restart_ngwfs_tightbox_output        :    13      141.43s   3.963%  ------ ||
|| basis_dot_function_with_box          : 7.626M     207.12s   5.804%  ------ ||
|| edft_diag_ngwf_ham                   :   210      224.17s   6.282%  ------ ||
|| fourier_apply_box                    : 72672      225.47s   6.318% 978.451 ||
|| projectors_gradient_batch            :    56      250.15s   7.010%  ------ ||
|| integrals_locpot_mat_els_batch       :   304      267.27s   7.490%  ------ ||
|| density_fftbox_interpolate_multiply  : 15488      299.95s   8.405%  ------ ||
|| projectors_grad_precond_batch        :    56      347.41s   9.736%  ------ ||
|| density_batch_interp_deposit         :   968      373.02s  10.453%  ------ ||
|| integrals_locpot_dbl_grid            :    76      385.83s  10.812%  ------ ||
|| edft_apply_smearing_operator         :   210      443.73s  12.435%  ------ ||
|| basis_add_function_to_box            : 21.67M     570.88s  15.998%  ------ ||
|| ngwf_gradient_build_batch            :    56      639.80s  17.929%  ------ ||
|| density_batch_row_sums               :   968      767.91s  21.519%  ------ ||
|| ngwf_gradient_batch                  :    56      859.40s  24.083%  ------ ||
|| ngwf_gradient_lnv                    :    14      889.68s  24.931%  ------ ||
|| density_on_dbl_grid                  :   242     1153.38s  32.321%  ------ ||
|| hamiltonian_lhxc_calculate           :   237     1254.52s  35.155%  ------ ||
|| edft_calculate                       :    14     2068.90s  57.976%  ------ ||
|| ngwf_cg_optimise                     :     1     3458.24s  96.909%  ------ ||
|| total_time                           :     1     3568.53s 100.000%  ------ ||
================================================================================
Overhead of generating timer report: 
- 0 ms averaging over threads,
- 5 ms ensuring consistency across MPI ranks,
- 0 ms printing in order.

Job completed: 21-02-2020 19:03 (-0000)

