 +---------------------------------------------------------------+
 |                                                               |
 |        ####### #     # ####### ####### ####### ######         |
 |        #     # ##    # #          #    #       #     #        |
 |        #     # # #   # #          #    #       #     #        |
 |        #     # #  #  # #####      #    #####   ######         |
 |        #     # #   # # #          #    #       #              |
 |        #     # #    ## #          #    #       #              |
 |        ####### #     # #######    #    ####### #              |
 |                                                               |
 |        Linear-Scaling Ab Initio Total Energy Program          |
 |                                                               |
 |          Release for academic collaborators of ODG            |
 |                                             Version 5.3.2.12  |
 |                                                               |
 +---------------------------------------------------------------+
 |                                                               |
 |  Authors:                                                     |
 |  Jacek Dziedzic, Peter D. Haynes, Nicholas D. M. Hine,        |
 |  Arash. A. Mostofi, Mike C. Payne and Chris-Kriton Skylaris   |
 |                                                               |
 |  Contributors:                                                |
 |  J. Aarons, L. Andrinopoulos, P. W. Avraam, R. A. Bell,       |
 |  A. Bhandari, G. A. Bramley, R. J. Charlton, S. J. Clark,     |
 |  R. J. Clements, G. C. Constantinescu, F. Corsetti,           |
 |  N. Corsini, O. Dieguez, S. M. M. Dubois, K. K. B. Duff,      |
 |  J. M. Escartin, A. Greco, H. Helal, Q. O. Hill, L. P. Lee,   |
 |  J.-H. Li, E. B. Linscott, G. Moynihan, D. D. O`Regan,        |
 |  O. K. Okan, M. J. S. Phipps, C. J. Pickard,                  |
 |  J. C. A. Prentice, M. I. J. Probert, L. E. Ratcliff,         |
 |  M. Robinson, A. Ruiz Serrano, J. S. Spencer, E. W. Tait,     |
 |  G. Teobaldi, D. Turban, V. Vitale, K. A. Wilkinson,          |
 |  C. Weber, J. C. Womack, N. Yeung and T. J. Zuehlsdorff       |
 |                                                               |
 |                                   Copyright (c) 2004-2020     |
 |                                                               |
 |  Please cite:                                                 |
 |  "Introducing ONETEP: Linear-scaling density functional       |
 |   simulations on parallel computers".                         |
 |   C.-K. Skylaris, P. D. Haynes, A. A. Mostofi, M. C. Payne.   |
 |   J. Chem. Phys. 122 084119 (2005).                           |
 |                                                               |
 |          in all publications arising from your use of ONETEP. |
 |                                                               |
 +---------------------------------------------------------------+
 |                                                               |
 |   ONETEP is based on developments described in the following  |
 |   publications:                                               |
 |                                                               |
 |  "Nonorthogonal generalized Wannier function pseudopotential  |
 |   plane-wave method".                                         |
 |   C.-K. Skylaris, A. A. Mostofi, P. D. Haynes, O. Dieguez,    |
 |   M. C. Payne.                                                |
 |   Phys. Rev. B 66 035119 (2002).                              |
 |                                                               |
 |  "Preconditioned iterative minimization for linear-scaling    |
 |   electronic structure calculations".                         |
 |   A. A. Mostofi, P. D. Haynes, C.-K. Skylaris, M. C. Payne.   |
 |   J. Chem. Phys. 119(17), pp.8842-8848 (2003).                |
 |                                                               |
 |  "Total-energy calculations on a real space grid with         |
 |   localized functions and a plane-wave basis".                |
 |   A. A. Mostofi, C.-K. Skylaris, P. D. Haynes, M. C. Payne.   |
 |   Comput. Phys. Commun. 147, pp.788-802 (2002).               |
 |                                                               |
 |  "Accurate kinetic energy evaluation in electronic structure  |
 |   calculations with localized functions on real space grids"  |
 |   C.-K. Skylaris, A. A. Mostofi, P. D. Haynes, C. J. Pickard, |
 |   M. C. Payne.                                                |
 |   Comput. Phys. Commun. 140, pp.315-322 (2001).               |
 |                                                               |
 |  "Accurate ionic forces and geometry optimization in linear-  |
 |   scaling density-functional theory with local orbitals"      |
 |   N. D. M. Hine, M. Robinson, P. D. Haynes, C.-K. Skylaris,   |
 |   M. C. Payne, and A. A. Mostofi.                             |
 |   Phys. Rev. B 83 195102 (2011).                              |
 |                                                               |
 +---------------------------------------------------------------+

Job started: 09-03-2020 12:08 (-0000)
 
Reading parameters from file "5.500496_GO_manual_4x64graphite.dat" ...

WARNING: "cutoff_energy" not specified, but "psinc_spacing" specified.
         Using the latter to set the KE cutoff energy to  732.32021eV,
         thus *overriding* the default.

... done

If your calculation crashes here, before "Checking processes and threads..."
is displayed, then your stack size is insufficient.
If so, use "ulimit -s unlimited" at runtime.
You can disable this check with "check_stack_size F".

Checking processes and threads...
   Determining the default number of threads...
      No default threads set at compilation time: defaulting to 1.
      OpenMP library call suggests 4 threads.
      Hybrid MPI-OpenMP compilation detected.
      Number of MPI processes > 1.
      OMP_NUM_THREADS environment variable present and
      its value matches the one obtained from the OpenMP library call.
      Using this value as default.
      Default threads: 4
      Default applies to threads_max and threads_num_fftboxes.
      Settings in the input file override this default.
   ... done

   Running with 40 MPI processes.
   There are 10 MPI processes running on the same node as the root process.
   Each MPI process is using: 
               1 threads for simulation cell FFTs.
               1 threads for parallel FFT box operations.
               4 threads for loops over batched FFT box operations.
               4 threads in other parallel regions.
... done

Basic input checks...
Resetting ngwf_cg_rotate to TRUE for EDFT calculations
... done

Reading geometry and species blocks from file "5.500496_GO_manual_4x64graphite.dat" ...
    
  PSINC grid spacing along a1 set to   0.511215680000a0 from input file.
  PSINC grid spacing along a2 set to   0.531284090000a0 from input file.
  PSINC grid spacing along a3 set to   0.507046450000a0 from input file.
  Number of PPD points along a3 set to 1.  This is 
  the default value, it may have been provided also in the input file.
... done
 Writing xyz coordinates to file "5.500496_GO_manual_4x64graphite.xyz" ... done


--------------------------------------------------------------------------------
---------------------------------- INPUT FILE ----------------------------------
--------------------------------------------------------------------------------

task : singlepoint                                                              
do_properties : true                                                            
dx_format T                                                                     
edft T                                                                          
output_detail VERBOSE                                                           
write_xyz T                                                                     
xc_functional AVV10S                                                            
PSINC_SPACING 0.51121568 0.53128409 0.50704645                                  
paw T                                                                           
pdos_max_l = 2                                                                  
dos_smear  0.1 eV                                                               
popn_calculate T                                                                
PDOS_PSEUDOATOMIC T                                                             
PDOS_REDUCE_SWS F                                                               
PDOS_CONSTRUCT_BASIS F                                                          
PDOS_LOWDIN T                                                                   
PDOS_ORTH_ATOM_BLOCKS F                                                         
PDOS_LCAO_OPTIMIZE F                                                            
pdos_optados_output T                                                           
homo_plot 0                                                                     
lumo_plot 0                                                                     
homo_dens_plot -1                                                               
lumo_dens_plot -1                                                               
%BLOCK SPECIES                                                                  
C C 6 4 9.0                                                                     
%ENDBLOCK SPECIES                                                               
%BLOCK SPECIES_POT                                                              
C "~/pp/paw/c_pbe_abinit.paw"                                                   
%ENDBLOCK SPECIES_POT                                                           
%BLOCK SPECIES_ATOMIC_SET                                                       
C "SOLVE conf=2s2 2p2"                                                          
%ENDBLOCK SPECIES_ATOMIC_SET                                                    
%BLOCK LATTICE_CART                                                             
32.21  0.00  0.00                                                               
0.00 18.59  0.00                                                                
0.00  0.00 103.94                                                               
%ENDBLOCK LATTICE_CART                                                          
%BLOCK POSITIONS_ABS                                                            
C  0.00  0.00  5.20                                                             
C  0.00  0.00 25.99                                                             
C  0.00  0.00 46.78                                                             
C  0.00  0.00 67.56                                                             
C  0.00  0.00 88.35                                                             
C  0.00  4.65  5.20                                                             
C  0.00  4.65 25.99                                                             
C  0.00  4.65 46.78                                                             
C  0.00  4.65 67.56                                                             
C  0.00  4.65 88.35                                                             
C  4.03  2.32  5.20                                                             
C  4.03  2.32 25.99                                                             
C  4.03  2.32 46.78                                                             
C  4.03  2.32 67.56                                                             
C  4.03  2.32 88.35                                                             
C  8.05  0.00  5.20                                                             
C  8.05  0.00 25.99                                                             
C  8.05  0.00 46.78                                                             
C  8.05  0.00 67.56                                                             
C  8.05  0.00 88.35                                                             
C  0.00  9.30  5.20                                                             
C  0.00  9.30 25.99                                                             
C  0.00  9.30 46.78                                                             
C  0.00  9.30 67.56                                                             
C  0.00  9.30 88.35                                                             
C  4.03  6.97  5.20                                                             
C  4.03  6.97 25.99                                                             
C  4.03  6.97 46.78                                                             
C  4.03  6.97 67.56                                                             
C  4.03  6.97 88.35                                                             
C  8.05  4.65  5.20                                                             
C  8.05  4.65 25.99                                                             
C  8.05  4.65 46.78                                                             
C  8.05  4.65 67.56                                                             
C  8.05  4.65 88.35                                                             
C 12.08  2.32  5.20                                                             
C 12.08  2.32 25.99                                                             
C 12.08  2.32 46.78                                                             
C 12.08  2.32 67.56                                                             
C 12.08  2.32 88.35                                                             
C 16.10  0.00  5.20                                                             
C 16.10  0.00 25.99                                                             
C 16.10  0.00 46.78                                                             
C 16.10  0.00 67.56                                                             
C 16.10  0.00 88.35                                                             
C  0.00 13.95  5.20                                                             
C  0.00 13.95 25.99                                                             
C  0.00 13.95 46.78                                                             
C  0.00 13.95 67.56                                                             
C  0.00 13.95 88.35                                                             
C  4.03 11.62  5.20                                                             
C  4.03 11.62 25.99                                                             
C  4.03 11.62 46.78                                                             
C  4.03 11.62 67.56                                                             
C  4.03 11.62 88.35                                                             
C  8.05  9.30  5.20                                                             
C  8.05  9.30 25.99                                                             
C  8.05  9.30 46.78                                                             
C  8.05  9.30 67.56                                                             
C  8.05  9.30 88.35                                                             
C 12.08  6.97  5.20                                                             
C 12.08  6.97 25.99                                                             
C 12.08  6.97 46.78                                                             
C 12.08  6.97 67.56                                                             
C 12.08  6.97 88.35                                                             
C 16.10  4.65  5.20                                                             
C 16.10  4.65 25.99                                                             
C 16.10  4.65 46.78                                                             
C 16.10  4.65 67.56                                                             
C 16.10  4.65 88.35                                                             
C 20.13  2.32  5.20                                                             
C 20.13  2.32 25.99                                                             
C 20.13  2.32 46.78                                                             
C 20.13  2.32 67.56                                                             
C 20.13  2.32 88.35                                                             
C 24.16  0.00  5.20                                                             
C 24.16  0.00 25.99                                                             
C 24.16  0.00 46.78                                                             
C 24.16  0.00 67.56                                                             
C 24.16  0.00 88.35                                                             
C  4.03 16.27  5.20                                                             
C  4.03 16.27 25.99                                                             
C  4.03 16.27 46.78                                                             
C  4.03 16.27 67.56                                                             
C  4.03 16.27 88.35                                                             
C  8.05 13.95  5.20                                                             
C  8.05 13.95 25.99                                                             
C  8.05 13.95 46.78                                                             
C  8.05 13.95 67.56                                                             
C  8.05 13.95 88.35                                                             
C 12.08 11.62  5.20                                                             
C 12.08 11.62 25.99                                                             
C 12.08 11.62 46.78                                                             
C 12.08 11.62 67.56                                                             
C 12.08 11.62 88.35                                                             
C 16.10  9.30  5.20                                                             
C 16.10  9.30 25.99                                                             
C 16.10  9.30 46.78                                                             
C 16.10  9.30 67.56                                                             
C 16.10  9.30 88.35                                                             
C 20.13  6.97  5.20                                                             
C 20.13  6.97 25.99                                                             
C 20.13  6.97 46.78                                                             
C 20.13  6.97 67.56                                                             
C 20.13  6.97 88.35                                                             
C 24.16  4.65  5.20                                                             
C 24.16  4.65 25.99                                                             
C 24.16  4.65 46.78                                                             
C 24.16  4.65 67.56                                                             
C 24.16  4.65 88.35                                                             
C 28.18  2.32  5.20                                                             
C 28.18  2.32 25.99                                                             
C 28.18  2.32 46.78                                                             
C 28.18  2.32 67.56                                                             
C 28.18  2.32 88.35                                                             
C 12.08 16.27  5.20                                                             
C 12.08 16.27 25.99                                                             
C 12.08 16.27 46.78                                                             
C 12.08 16.27 67.56                                                             
C 12.08 16.27 88.35                                                             
C 16.10 13.95  5.20                                                             
C 16.10 13.95 25.99                                                             
C 16.10 13.95 46.78                                                             
C 16.10 13.95 67.56                                                             
C 16.10 13.95 88.35                                                             
C 20.13 11.62  5.20                                                             
C 20.13 11.62 25.99                                                             
C 20.13 11.62 46.78                                                             
C 20.13 11.62 67.56                                                             
C 20.13 11.62 88.35                                                             
C 24.16  9.30  5.20                                                             
C 24.16  9.30 25.99                                                             
C 24.16  9.30 46.78                                                             
C 24.16  9.30 67.56                                                             
C 24.16  9.30 88.35                                                             
C 28.18  6.97  5.20                                                             
C 28.18  6.97 25.99                                                             
C 28.18  6.97 46.78                                                             
C 28.18  6.97 67.56                                                             
C 28.18  6.97 88.35                                                             
C 20.13 16.27  5.20                                                             
C 20.13 16.27 25.99                                                             
C 20.13 16.27 46.78                                                             
C 20.13 16.27 67.56                                                             
C 20.13 16.27 88.35                                                             
C 24.16 13.95  5.20                                                             
C 24.16 13.95 25.99                                                             
C 24.16 13.95 46.78                                                             
C 24.16 13.95 67.56                                                             
C 24.16 13.95 88.35                                                             
C 28.18 11.62  5.20                                                             
C 28.18 11.62 25.99                                                             
C 28.18 11.62 46.78                                                             
C 28.18 11.62 67.56                                                             
C 28.18 11.62 88.35                                                             
C 28.18 16.27  5.20                                                             
C 28.18 16.27 25.99                                                             
C 28.18 16.27 46.78                                                             
C 28.18 16.27 67.56                                                             
C 28.18 16.27 88.35                                                             
C  0.00  0.00 15.59                                                             
C  0.00  0.00 36.38                                                             
C  0.00  0.00 57.17                                                             
C  0.00  0.00 77.96                                                             
C  0.00  0.00 98.75                                                             
C  0.00  4.65 15.59                                                             
C  0.00  4.65 36.38                                                             
C  0.00  4.65 57.17                                                             
C  0.00  4.65 77.96                                                             
C  0.00  4.65 98.75                                                             
C  4.03  2.32 15.59                                                             
C  4.03  2.32 36.38                                                             
C  4.03  2.32 57.17                                                             
C  4.03  2.32 77.96                                                             
C  4.03  2.32 98.75                                                             
C  8.05  0.00 15.59                                                             
C  8.05  0.00 36.38                                                             
C  8.05  0.00 57.17                                                             
C  8.05  0.00 77.96                                                             
C  8.05  0.00 98.75                                                             
C  0.00  9.30 15.59                                                             
C  0.00  9.30 36.38                                                             
C  0.00  9.30 57.17                                                             
C  0.00  9.30 77.96                                                             
C  0.00  9.30 98.75                                                             
C  4.03  6.97 15.59                                                             
C  4.03  6.97 36.38                                                             
C  4.03  6.97 57.17                                                             
C  4.03  6.97 77.96                                                             
C  4.03  6.97 98.75                                                             
C  8.05  4.65 15.59                                                             
C  8.05  4.65 36.38                                                             
C  8.05  4.65 57.17                                                             
C  8.05  4.65 77.96                                                             
C  8.05  4.65 98.75                                                             
C 12.08  2.32 15.59                                                             
C 12.08  2.32 36.38                                                             
C 12.08  2.32 57.17                                                             
C 12.08  2.32 77.96                                                             
C 12.08  2.32 98.75                                                             
C 16.10  0.00 15.59                                                             
C 16.10  0.00 36.38                                                             
C 16.10  0.00 57.17                                                             
C 16.10  0.00 77.96                                                             
C 16.10  0.00 98.75                                                             
C  0.00 13.95 15.59                                                             
C  0.00 13.95 36.38                                                             
C  0.00 13.95 57.17                                                             
C  0.00 13.95 77.96                                                             
C  0.00 13.95 98.75                                                             
C  4.03 11.62 15.59                                                             
C  4.03 11.62 36.38                                                             
C  4.03 11.62 57.17                                                             
C  4.03 11.62 77.96                                                             
C  4.03 11.62 98.75                                                             
C  8.05  9.30 15.59                                                             
C  8.05  9.30 36.38                                                             
C  8.05  9.30 57.17                                                             
C  8.05  9.30 77.96                                                             
C  8.05  9.30 98.75                                                             
C 12.08  6.97 15.59                                                             
C 12.08  6.97 36.38                                                             
C 12.08  6.97 57.17                                                             
C 12.08  6.97 77.96                                                             
C 12.08  6.97 98.75                                                             
C 16.10  4.65 15.59                                                             
C 16.10  4.65 36.38                                                             
C 16.10  4.65 57.17                                                             
C 16.10  4.65 77.96                                                             
C 16.10  4.65 98.75                                                             
C 20.13  2.32 15.59                                                             
C 20.13  2.32 36.38                                                             
C 20.13  2.32 57.17                                                             
C 20.13  2.32 77.96                                                             
C 20.13  2.32 98.75                                                             
C 24.16  0.00 15.59                                                             
C 24.16  0.00 36.38                                                             
C 24.16  0.00 57.17                                                             
C 24.16  0.00 77.96                                                             
C 24.16  0.00 98.75                                                             
C  4.03 16.27 15.59                                                             
C  4.03 16.27 36.38                                                             
C  4.03 16.27 57.17                                                             
C  4.03 16.27 77.96                                                             
C  4.03 16.27 98.75                                                             
C  8.05 13.95 15.59                                                             
C  8.05 13.95 36.38                                                             
C  8.05 13.95 57.17                                                             
C  8.05 13.95 77.96                                                             
C  8.05 13.95 98.75                                                             
C 12.08 11.62 15.59                                                             
C 12.08 11.62 36.38                                                             
C 12.08 11.62 57.17                                                             
C 12.08 11.62 77.96                                                             
C 12.08 11.62 98.75                                                             
C 16.10  9.30 15.59                                                             
C 16.10  9.30 36.38                                                             
C 16.10  9.30 57.17                                                             
C 16.10  9.30 77.96                                                             
C 16.10  9.30 98.75                                                             
C 20.13  6.97 15.59                                                             
C 20.13  6.97 36.38                                                             
C 20.13  6.97 57.17                                                             
C 20.13  6.97 77.96                                                             
C 20.13  6.97 98.75                                                             
C 24.16  4.65 15.59                                                             
C 24.16  4.65 36.38                                                             
C 24.16  4.65 57.17                                                             
C 24.16  4.65 77.96                                                             
C 24.16  4.65 98.75                                                             
C 28.18  2.32 15.59                                                             
C 28.18  2.32 36.38                                                             
C 28.18  2.32 57.17                                                             
C 28.18  2.32 77.96                                                             
C 28.18  2.32 98.75                                                             
C 12.08 16.27 15.59                                                             
C 12.08 16.27 36.38                                                             
C 12.08 16.27 57.17                                                             
C 12.08 16.27 77.96                                                             
C 12.08 16.27 98.75                                                             
C 16.10 13.95 15.59                                                             
C 16.10 13.95 36.38                                                             
C 16.10 13.95 57.17                                                             
C 16.10 13.95 77.96                                                             
C 16.10 13.95 98.75                                                             
C 20.13 11.62 15.59                                                             
C 20.13 11.62 36.38                                                             
C 20.13 11.62 57.17                                                             
C 20.13 11.62 77.96                                                             
C 20.13 11.62 98.75                                                             
C 24.16  9.30 15.59                                                             
C 24.16  9.30 36.38                                                             
C 24.16  9.30 57.17                                                             
C 24.16  9.30 77.96                                                             
C 24.16  9.30 98.75                                                             
C 28.18  6.97 15.59                                                             
C 28.18  6.97 36.38                                                             
C 28.18  6.97 57.17                                                             
C 28.18  6.97 77.96                                                             
C 28.18  6.97 98.75                                                             
C 20.13 16.27 15.59                                                             
C 20.13 16.27 36.38                                                             
C 20.13 16.27 57.17                                                             
C 20.13 16.27 77.96                                                             
C 20.13 16.27 98.75                                                             
C 24.16 13.95 15.59                                                             
C 24.16 13.95 36.38                                                             
C 24.16 13.95 57.17                                                             
C 24.16 13.95 77.96                                                             
C 24.16 13.95 98.75                                                             
C 28.18 11.62 15.59                                                             
C 28.18 11.62 36.38                                                             
C 28.18 11.62 57.17                                                             
C 28.18 11.62 77.96                                                             
C 28.18 11.62 98.75                                                             
C 28.18 16.27 15.59                                                             
C 28.18 16.27 36.38                                                             
C 28.18 16.27 57.17                                                             
C 28.18 16.27 77.96                                                             
C 28.18 16.27 98.75                                                             
C  1.34  2.32  5.20                                                             
C  1.34  2.32 25.99                                                             
C  1.34  2.32 46.78                                                             
C  1.34  2.32 67.56                                                             
C  1.34  2.32 88.35                                                             
C  5.37  0.00  5.20                                                             
C  5.37  0.00 25.99                                                             
C  5.37  0.00 46.78                                                             
C  5.37  0.00 67.56                                                             
C  5.37  0.00 88.35                                                             
C  1.34  6.97  5.20                                                             
C  1.34  6.97 25.99                                                             
C  1.34  6.97 46.78                                                             
C  1.34  6.97 67.56                                                             
C  1.34  6.97 88.35                                                             
C  5.37  4.65  5.20                                                             
C  5.37  4.65 25.99                                                             
C  5.37  4.65 46.78                                                             
C  5.37  4.65 67.56                                                             
C  5.37  4.65 88.35                                                             
C  9.39  2.32  5.20                                                             
C  9.39  2.32 25.99                                                             
C  9.39  2.32 46.78                                                             
C  9.39  2.32 67.56                                                             
C  9.39  2.32 88.35                                                             
C 13.42  0.00  5.20                                                             
C 13.42  0.00 25.99                                                             
C 13.42  0.00 46.78                                                             
C 13.42  0.00 67.56                                                             
C 13.42  0.00 88.35                                                             
C  1.34 11.62  5.20                                                             
C  1.34 11.62 25.99                                                             
C  1.34 11.62 46.78                                                             
C  1.34 11.62 67.56                                                             
C  1.34 11.62 88.35                                                             
C  5.37  9.30  5.20                                                             
C  5.37  9.30 25.99                                                             
C  5.37  9.30 46.78                                                             
C  5.37  9.30 67.56                                                             
C  5.37  9.30 88.35                                                             
C  9.39  6.97  5.20                                                             
C  9.39  6.97 25.99                                                             
C  9.39  6.97 46.78                                                             
C  9.39  6.97 67.56                                                             
C  9.39  6.97 88.35                                                             
C 13.42  4.65  5.20                                                             
C 13.42  4.65 25.99                                                             
C 13.42  4.65 46.78                                                             
C 13.42  4.65 67.56                                                             
C 13.42  4.65 88.35                                                             
C 17.45  2.32  5.20                                                             
C 17.45  2.32 25.99                                                             
C 17.45  2.32 46.78                                                             
C 17.45  2.32 67.56                                                             
C 17.45  2.32 88.35                                                             
C 21.47  0.00  5.20                                                             
C 21.47  0.00 25.99                                                             
C 21.47  0.00 46.78                                                             
C 21.47  0.00 67.56                                                             
C 21.47  0.00 88.35                                                             
C  1.34 16.27  5.20                                                             
C  1.34 16.27 25.99                                                             
C  1.34 16.27 46.78                                                             
C  1.34 16.27 67.56                                                             
C  1.34 16.27 88.35                                                             
C  5.37 13.95  5.20                                                             
C  5.37 13.95 25.99                                                             
C  5.37 13.95 46.78                                                             
C  5.37 13.95 67.56                                                             
C  5.37 13.95 88.35                                                             
C  9.39 11.62  5.20                                                             
C  9.39 11.62 25.99                                                             
C  9.39 11.62 46.78                                                             
C  9.39 11.62 67.56                                                             
C  9.39 11.62 88.35                                                             
C 13.42  9.30  5.20                                                             
C 13.42  9.30 25.99                                                             
C 13.42  9.30 46.78                                                             
C 13.42  9.30 67.56                                                             
C 13.42  9.30 88.35                                                             
C 17.45  6.97  5.20                                                             
C 17.45  6.97 25.99                                                             
C 17.45  6.97 46.78                                                             
C 17.45  6.97 67.56                                                             
C 17.45  6.97 88.35                                                             
C 21.47  4.65  5.20                                                             
C 21.47  4.65 25.99                                                             
C 21.47  4.65 46.78                                                             
C 21.47  4.65 67.56                                                             
C 21.47  4.65 88.35                                                             
C 25.50  2.32  5.20                                                             
C 25.50  2.32 25.99                                                             
C 25.50  2.32 46.78                                                             
C 25.50  2.32 67.56                                                             
C 25.50  2.32 88.35                                                             
C 29.52  0.00  5.20                                                             
C 29.52  0.00 25.99                                                             
C 29.52  0.00 46.78                                                             
C 29.52  0.00 67.56                                                             
C 29.52  0.00 88.35                                                             
C  9.39 16.27  5.20                                                             
C  9.39 16.27 25.99                                                             
C  9.39 16.27 46.78                                                             
C  9.39 16.27 67.56                                                             
C  9.39 16.27 88.35                                                             
C 13.42 13.95  5.20                                                             
C 13.42 13.95 25.99                                                             
C 13.42 13.95 46.78                                                             
C 13.42 13.95 67.56                                                             
C 13.42 13.95 88.35                                                             
C 17.45 11.62  5.20                                                             
C 17.45 11.62 25.99                                                             
C 17.45 11.62 46.78                                                             
C 17.45 11.62 67.56                                                             
C 17.45 11.62 88.35                                                             
C 21.47  9.30  5.20                                                             
C 21.47  9.30 25.99                                                             
C 21.47  9.30 46.78                                                             
C 21.47  9.30 67.56                                                             
C 21.47  9.30 88.35                                                             
C 25.50  6.97  5.20                                                             
C 25.50  6.97 25.99                                                             
C 25.50  6.97 46.78                                                             
C 25.50  6.97 67.56                                                             
C 25.50  6.97 88.35                                                             
C 29.52  4.65  5.20                                                             
C 29.52  4.65 25.99                                                             
C 29.52  4.65 46.78                                                             
C 29.52  4.65 67.56                                                             
C 29.52  4.65 88.35                                                             
C 17.45 16.27  5.20                                                             
C 17.45 16.27 25.99                                                             
C 17.45 16.27 46.78                                                             
C 17.45 16.27 67.56                                                             
C 17.45 16.27 88.35                                                             
C 21.47 13.95  5.20                                                             
C 21.47 13.95 25.99                                                             
C 21.47 13.95 46.78                                                             
C 21.47 13.95 67.56                                                             
C 21.47 13.95 88.35                                                             
C 25.50 11.62  5.20                                                             
C 25.50 11.62 25.99                                                             
C 25.50 11.62 46.78                                                             
C 25.50 11.62 67.56                                                             
C 25.50 11.62 88.35                                                             
C 29.52  9.30  5.20                                                             
C 29.52  9.30 25.99                                                             
C 29.52  9.30 46.78                                                             
C 29.52  9.30 67.56                                                             
C 29.52  9.30 88.35                                                             
C 25.50 16.27  5.20                                                             
C 25.50 16.27 25.99                                                             
C 25.50 16.27 46.78                                                             
C 25.50 16.27 67.56                                                             
C 25.50 16.27 88.35                                                             
C 29.52 13.95  5.20                                                             
C 29.52 13.95 25.99                                                             
C 29.52 13.95 46.78                                                             
C 29.52 13.95 67.56                                                             
C 29.52 13.95 88.35                                                             
C  2.68  0.00 15.59                                                             
C  2.68  0.00 36.38                                                             
C  2.68  0.00 57.17                                                             
C  2.68  0.00 77.96                                                             
C  2.68  0.00 98.75                                                             
C  2.68  4.65 15.59                                                             
C  2.68  4.65 36.38                                                             
C  2.68  4.65 57.17                                                             
C  2.68  4.65 77.96                                                             
C  2.68  4.65 98.75                                                             
C  6.71  2.32 15.59                                                             
C  6.71  2.32 36.38                                                             
C  6.71  2.32 57.17                                                             
C  6.71  2.32 77.96                                                             
C  6.71  2.32 98.75                                                             
C 10.74  0.00 15.59                                                             
C 10.74  0.00 36.38                                                             
C 10.74  0.00 57.17                                                             
C 10.74  0.00 77.96                                                             
C 10.74  0.00 98.75                                                             
C  2.68  9.30 15.59                                                             
C  2.68  9.30 36.38                                                             
C  2.68  9.30 57.17                                                             
C  2.68  9.30 77.96                                                             
C  2.68  9.30 98.75                                                             
C  6.71  6.97 15.59                                                             
C  6.71  6.97 36.38                                                             
C  6.71  6.97 57.17                                                             
C  6.71  6.97 77.96                                                             
C  6.71  6.97 98.75                                                             
C 10.74  4.65 15.59                                                             
C 10.74  4.65 36.38                                                             
C 10.74  4.65 57.17                                                             
C 10.74  4.65 77.96                                                             
C 10.74  4.65 98.75                                                             
C 14.76  2.32 15.59                                                             
C 14.76  2.32 36.38                                                             
C 14.76  2.32 57.17                                                             
C 14.76  2.32 77.96                                                             
C 14.76  2.32 98.75                                                             
C 18.79  0.00 15.59                                                             
C 18.79  0.00 36.38                                                             
C 18.79  0.00 57.17                                                             
C 18.79  0.00 77.96                                                             
C 18.79  0.00 98.75                                                             
C  2.68 13.95 15.59                                                             
C  2.68 13.95 36.38                                                             
C  2.68 13.95 57.17                                                             
C  2.68 13.95 77.96                                                             
C  2.68 13.95 98.75                                                             
C  6.71 11.62 15.59                                                             
C  6.71 11.62 36.38                                                             
C  6.71 11.62 57.17                                                             
C  6.71 11.62 77.96                                                             
C  6.71 11.62 98.75                                                             
C 10.74  9.30 15.59                                                             
C 10.74  9.30 36.38                                                             
C 10.74  9.30 57.17                                                             
C 10.74  9.30 77.96                                                             
C 10.74  9.30 98.75                                                             
C 14.76  6.97 15.59                                                             
C 14.76  6.97 36.38                                                             
C 14.76  6.97 57.17                                                             
C 14.76  6.97 77.96                                                             
C 14.76  6.97 98.75                                                             
C 18.79  4.65 15.59                                                             
C 18.79  4.65 36.38                                                             
C 18.79  4.65 57.17                                                             
C 18.79  4.65 77.96                                                             
C 18.79  4.65 98.75                                                             
C 22.81  2.32 15.59                                                             
C 22.81  2.32 36.38                                                             
C 22.81  2.32 57.17                                                             
C 22.81  2.32 77.96                                                             
C 22.81  2.32 98.75                                                             
C 26.84  0.00 15.59                                                             
C 26.84  0.00 36.38                                                             
C 26.84  0.00 57.17                                                             
C 26.84  0.00 77.96                                                             
C 26.84  0.00 98.75                                                             
C  6.71 16.27 15.59                                                             
C  6.71 16.27 36.38                                                             
C  6.71 16.27 57.17                                                             
C  6.71 16.27 77.96                                                             
C  6.71 16.27 98.75                                                             
C 10.74 13.95 15.59                                                             
C 10.74 13.95 36.38                                                             
C 10.74 13.95 57.17                                                             
C 10.74 13.95 77.96                                                             
C 10.74 13.95 98.75                                                             
C 14.76 11.62 15.59                                                             
C 14.76 11.62 36.38                                                             
C 14.76 11.62 57.17                                                             
C 14.76 11.62 77.96                                                             
C 14.76 11.62 98.75                                                             
C 18.79  9.30 15.59                                                             
C 18.79  9.30 36.38                                                             
C 18.79  9.30 57.17                                                             
C 18.79  9.30 77.96                                                             
C 18.79  9.30 98.75                                                             
C 22.81  6.97 15.59                                                             
C 22.81  6.97 36.38                                                             
C 22.81  6.97 57.17                                                             
C 22.81  6.97 77.96                                                             
C 22.81  6.97 98.75                                                             
C 26.84  4.65 15.59                                                             
C 26.84  4.65 36.38                                                             
C 26.84  4.65 57.17                                                             
C 26.84  4.65 77.96                                                             
C 26.84  4.65 98.75                                                             
C 30.86  2.32 15.59                                                             
C 30.86  2.32 36.38                                                             
C 30.86  2.32 57.17                                                             
C 30.86  2.32 77.96                                                             
C 30.86  2.32 98.75                                                             
C 14.76 16.27 15.59                                                             
C 14.76 16.27 36.38                                                             
C 14.76 16.27 57.17                                                             
C 14.76 16.27 77.96                                                             
C 14.76 16.27 98.75                                                             
C 18.79 13.95 15.59                                                             
C 18.79 13.95 36.38                                                             
C 18.79 13.95 57.17                                                             
C 18.79 13.95 77.96                                                             
C 18.79 13.95 98.75                                                             
C 22.81 11.62 15.59                                                             
C 22.81 11.62 36.38                                                             
C 22.81 11.62 57.17                                                             
C 22.81 11.62 77.96                                                             
C 22.81 11.62 98.75                                                             
C 26.84  9.30 15.59                                                             
C 26.84  9.30 36.38                                                             
C 26.84  9.30 57.17                                                             
C 26.84  9.30 77.96                                                             
C 26.84  9.30 98.75                                                             
C 30.86  6.97 15.59                                                             
C 30.86  6.97 36.38                                                             
C 30.86  6.97 57.17                                                             
C 30.86  6.97 77.96                                                             
C 30.86  6.97 98.75                                                             
C 22.81 16.27 15.59                                                             
C 22.81 16.27 36.38                                                             
C 22.81 16.27 57.17                                                             
C 22.81 16.27 77.96                                                             
C 22.81 16.27 98.75                                                             
C 26.84 13.95 15.59                                                             
C 26.84 13.95 36.38                                                             
C 26.84 13.95 57.17                                                             
C 26.84 13.95 77.96                                                             
C 26.84 13.95 98.75                                                             
C 30.86 11.62 15.59                                                             
C 30.86 11.62 36.38                                                             
C 30.86 11.62 57.17                                                             
C 30.86 11.62 77.96                                                             
C 30.86 11.62 98.75                                                             
C 30.86 16.27 15.59                                                             
C 30.86 16.27 36.38                                                             
C 30.86 16.27 57.17                                                             
C 30.86 16.27 77.96                                                             
C 30.86 16.27 98.75                                                             
%ENDBLOCK POSITIONS_ABS                                                         

--------------------------------------------------------------------------------
-------------------------------- END INPUT FILE --------------------------------
--------------------------------------------------------------------------------


 
<<<<<<<<<<<<<<<<<<<<<<<<<<<<<<<<< Full system >>>>>>>>>>>>>>>>>>>>>>>>>>>>>>>>>>
<<<<<<<<<<<<<<<<<<<<<<<<<<< PAW Dataset information >>>>>>>>>>>>>>>>>>>>>>>>>>>
File: ~/pp/paw/c_pbe_abinit.paw; rc = 1.25 bohr; shape type =  3; rshape = 1.25 bohr;
  Atomic number:  6;  ionic charge:  4.000000
    Partial Wave 1: l = 0
    Partial Wave 2: l = 0
    Partial Wave 3: l = 1
    Partial Wave 4: l = 1
  Core charge supplied for Nonlinear Core Corrections
<<<<<<<<<<<<<<<<<<<<<<<<<<<<<<<<<<<<<<< >>>>>>>>>>>>>>>>>>>>>>>>>>>>>>>>>>>>>>>

-------------------------- Atom counting information ---------------------------
Symbol    Natoms    Nngwfs    Nprojs
  C        640      2560      5120
.......   ......    ......    ......
Totals:    640      2560      5120
--------------------------------------------------------------------------------

=============================== PSINC grid sizes ===============================
                      Simulation cell:   63 x  35 x 205
                              FFT-box:   63 x  35 x 117
                                  PPD:    7 x   5 x   1
Grid space d1=  0.511269841270a0 (KE cutoff=  29.06054Eh = 790.77748eV)
Grid space d2=  0.531142857143a0 (KE cutoff=  26.92659Eh = 732.70972eV)
Grid space d3=  0.507024390244a0 (KE cutoff=  29.54924Eh = 804.07570eV)
================================================================================
  
WARNING in cell_grid_distribute:
Average of less than one 23-slab per node, so workload cannot be
equally balanced between nodes.

********************* Fourier parallelisation information **********************
       Coarse grid (whole simulation cell) dimensions:     63    35   205
          Real-space ('12') slabs/node (min max mean):      5     6     5
         Recip-space ('23') slabs/node (min max mean):      0     1     0
********************************************************************************

********************* Fourier parallelisation information **********************
       Double grid (whole simulation cell) dimensions:    126    70   410
          Real-space ('12') slabs/node (min max mean):     10    11    10
         Recip-space ('23') slabs/node (min max mean):      1     2     1
********************************************************************************

Atom SCF Calculation for C  : Z (AE atom) =   6 : Z (PS atom) =   4
Config String: 2s2 2p2
Orbitals (num,occ):  2     2.00 2.00
Orbitals   (num,l):  2        0    1
Real-space Grid (nr,dr,rmax): 1293    0.0069659443    9.0000000000
Spherical Bessel Basis (nsws,lmax,cutoff):   37    2  161.4736382572
Confining potential (l,width,scale):  0    3.0000000000  100.0000000000
Confining potential (l,width,scale):  1    3.0000000000  100.0000000000
  1         -5.4129360987   -1.2444937266    4.5135257941   -1.5420271367
  2         -5.3444202281   -1.3377187790    4.4131101426   -1.5071921700
  3         -5.3525226456   -1.3566567794    4.3924752240   -1.5004938544
  4         -5.3561013121   -1.3623552809    4.3862114699   -1.4986199617
  5         -5.3580093800   -1.3653574582    4.3828991843   -1.4976654093
  6         -5.3590276761   -1.3669475005    4.3811409016   -1.4971696795
  7         -5.3595688314   -1.3677934914    4.3802040659   -1.4969088858
  8         -5.3598556216   -1.3682449178    4.3797036984   -1.4967706290
  9         -5.3600074081   -1.3684862338    4.3794360452   -1.4966970063
 10         -5.3600877081   -1.3686153812    4.3792927313   -1.4966576988
 11         -5.3601301919   -1.3686845537    4.3792159394   -1.4966366788
 12         -5.3601526758   -1.3687216261    4.3791747687   -1.4966254262
 13         -5.3601645804   -1.3687415049    4.3791526850   -1.4966193980
 14         -5.3601708871   -1.3687521691    4.3791408341   -1.4966161667
 15         -5.3601742301   -1.3687578926    4.3791344719   -1.4966144337
 16         -5.3601760032   -1.3687609656    4.3791310549   -1.4966135039
 17         -5.3601769442   -1.3687626162    4.3791292190   -1.4966130048
 18         -5.3601774440   -1.3687635032    4.3791282322   -1.4966127369
 19         -5.3601777096   -1.3687639799    4.3791277016   -1.4966125929
 20         -5.3601778508   -1.3687642363    4.3791274162   -1.4966125155
 21         -5.3601779259   -1.3687643743    4.3791272626   -1.4966124740
Atom SCF converged after  21 iterations to a total energy of     -5.36017793

Determining parallel strategy ...
... using space-filling curve
... NGWF load balancing: max     64;  min     64;  average     64
... Projector load balancing: max    128;  min    128;  average    128
... done
Calculating Ewald energy ...
              Ewald: real-space energy =    9952.144771
        Ewald: reciprocal-space energy =      18.090377
         Ewald: (sum_charge)**2 Energy =    9594.867932
         Ewald: (sum_charge**2) Energy =     758.540913
                          Ewald Energy =    -383.173696
Basis initialisation ...... NGWF spheres initialised
... Projector spheres initialised
... NGWF tight boxes initialised
... Projector tight boxes initialised
... Tight-boxes gathered
... NGWF basis size (local,global):     692532  27889120
... PAW projector initialisation
... done

============================= Charge Augmentation ==============================
                           Aug box size:   11 x  11 x  11
================================================================================

========================== Sparse matrix information ===========================
                        Overlap matrix filling:  26.88%
                        Density kernel filling: 100.00%
              NGWF-Proj overlap matrix filling:   5.47%
                    Aug Overlap matrix filling:  27.03%
                    Hamiltonian matrix filling:  27.03%
                  NGWF diagonal matrix filling:   0.16%
                             KS matrix filling: 100.00% 
                           KSKS matrix filling: 100.00% 
================================================================================

Sparse matrix initialisation ... done
NGWF initialisation ...... done
============ Calculation of NGWF S^-1 using Hotelling algorithm ================ 
         Iteration  |  Frobenius norm and Maximum abs value    (of I-S*S_n^-1)   
               1       0.48719140E+02     0.97132742E+00
               2       0.47284307E+02     0.94473833E+00
               3       0.45227317E+02     0.89697186E+00
               4       0.42667300E+02     0.81851907E+00
               5       0.39660157E+02     0.71502391E+00
               6       0.36285779E+02     0.66342390E+00
               7       0.32929590E+02     0.61971929E+00
               8       0.29710778E+02     0.58220805E+00
               9       0.26068724E+02     0.53549622E+00
              10       0.21342376E+02     0.45904514E+00
              11       0.15251620E+02     0.34090634E+00
              12       0.85449538E+01     0.19392021E+00
              13       0.31144831E+01     0.68056378E-01
              14       0.49495135E+00     0.98156546E-02
              15       0.14847333E-01     0.25270338E-03
              16       0.17654741E-04     0.21829620E-06
              17       0.38282986E-10     0.28521630E-12
================================================================================
Calculating core density ...
================================= Core Density =================================
               Core den box size:   21 x  21 x  21
================================================================================
 ... done
Up spin density kernel initialisation ...... done

Writing density kernel to file "5.500496_GO_manual_4x64graphite.dkn" ... done

>>> Optimising kernel for current NGWFs:

--------------------------- Ensemble-DFT optimisation --------------------------
Running ScaLAPACK on   40 processor(s).

--------------------------------------------------------------------------------
  Iter                              Commutator    Free_energy(A=E-TS)     DeltaA
#    0                          0.000022828742   -3613.30277407581616  -3.61E+03

Step                       =       0.381966011250
Energy                     =   -3613.302750372100
Entropy (-TS)              =      -0.000023703716
Free energy (A=E-TS)       =   -3613.302774075816
Est. 0K Energy 0.5*(E+A)   =   -3613.302762223958
Residual Non-orthogonality =       0.000000000000
Residual N_electrons       =       0.000000000001

Spin          Integrated_Ne            Fermi_level     Delta_Fermi_level
   1      2559.999999999958         0.021560758062              2.16E-02

                           Spin 1          
     Orb      H-eigenvalues     Occupancies
       1 |    -0.7013408417    1.0000000000 | 
                          ------
    1276 |    -0.0154220561    0.9999915239 | 
    1277 |    -0.0154208980    0.9999915208 | 
    1278 |    -0.0154208180    0.9999915206 | 
    1279 |    -0.0154205037    0.9999915197 | 
    1280 |    -0.0154196960    0.9999915176 | 
                 - Gap at zero temperature -
    1281 |     0.0586793757    0.0000081203 | 
    1282 |     0.0586804062    0.0000081177 | 
    1283 |     0.0586804377    0.0000081176 | 
    1284 |     0.0586809070    0.0000081164 | 
    1285 |     0.0586815860    0.0000081147 | 
                          ------
    2560 |     0.8620753667    0.0000000000 | 

                       |  Abs_value |  Threshold | Converged
     Delta_Free_energy |   3.61E+03 |   1.00E-06 |        No
     Delta_Energy      |   3.61E+03 |   1.00E-04 |        No
     Delta_Entropy     |   2.37E-05 |   1.00E-04 |       Yes
     Commutator        |   2.28E-05 |   1.00E-05 |        No
     Delta_Fermi_level |   2.16E-02 |   1.00E-03 |        No

  Line search of the free energy minimum:
  Step_type        Step             Free_energy   Predicted_free_energy
.   Initial    0.000000    -3613.30277407581616
.    Trial1    0.381966    -3613.30341941647293
.    Trial2    0.618034    -3613.30348179300927
. Quadratic    0.557288    -3613.30349046057745    -3613.30349030299794

--------------------------------------------------------------------------------
  Iter                              Commutator    Free_energy(A=E-TS)     DeltaA
#    1                          0.000012497196   -3613.30349046057745  -7.16E-04

Step                       =       0.557287851190
Energy                     =   -3613.303464942072
Entropy (-TS)              =      -0.000025518498
Free energy (A=E-TS)       =   -3613.303490460577
Est. 0K Energy 0.5*(E+A)   =   -3613.303477701324
Residual Non-orthogonality =       0.000000000000
Residual N_electrons       =      -0.000000000008

Spin          Integrated_Ne            Fermi_level     Delta_Fermi_level
   1      2560.000000000609         0.012577345511             -8.98E-03

                           Spin 1          
     Orb      H-eigenvalues     Occupancies
       1 |    -0.7109704270    1.0000000000 | 
                          ------
    1276 |    -0.0242157982    0.9999910007 | 
    1277 |    -0.0242155929    0.9999910001 | 
    1278 |    -0.0242136322    0.9999909946 | 
    1279 |    -0.0242123913    0.9999909910 | 
    1280 |    -0.0242113017    0.9999909879 | 
                 - Gap at zero temperature -
    1281 |     0.0493788674    0.0000089755 | 
    1282 |     0.0493792758    0.0000089744 | 
    1283 |     0.0493802009    0.0000089717 | 
    1284 |     0.0493808753    0.0000089698 | 
    1285 |     0.0493816566    0.0000089676 | 
                          ------
    2560 |     0.8505713693    0.0000000000 | 

                       |  Abs_value |  Threshold | Converged
     Delta_Free_energy |   7.16E-04 |   1.00E-06 |        No
     Delta_Energy      |   7.15E-04 |   1.00E-04 |        No
     Delta_Entropy     |   1.81E-06 |   1.00E-04 |       Yes
     Commutator        |   1.25E-05 |   1.00E-05 |        No
     Delta_Fermi_level |   8.98E-03 |   1.00E-03 |        No

  Line search of the free energy minimum:
  Step_type        Step             Free_energy   Predicted_free_energy
.   Initial    0.000000    -3613.30349046057745
.    Trial1    0.557288    -3613.30356531498273
.    Trial2    0.726389    -3613.30337380609126
. Quadratic    0.317153    -3613.30366551575116    -3613.30366588336346

--------------------------------------------------------------------------------
  Iter                              Commutator    Free_energy(A=E-TS)     DeltaA
#    2                          0.000006521366   -3613.30366551575116  -1.75E-04

Step                       =       0.317152573243
Energy                     =   -3613.303639519307
Entropy (-TS)              =      -0.000025996425
Free energy (A=E-TS)       =   -3613.303665515751
Est. 0K Energy 0.5*(E+A)   =   -3613.303652517529
Residual Non-orthogonality =       0.000000000000
Residual N_electrons       =      -0.000000000019

Spin          Integrated_Ne            Fermi_level     Delta_Fermi_level
   1      2560.000000001852         0.010310821963             -2.27E-03

                           Spin 1          
     Orb      H-eigenvalues     Occupancies
       1 |    -0.7134051750    1.0000000000 | 
                          ------
    1276 |    -0.0263962473    0.9999907528 | 
    1277 |    -0.0263960292    0.9999907521 | 
    1278 |    -0.0263934948    0.9999907447 | 
    1279 |    -0.0263920154    0.9999907404 | 
    1280 |    -0.0263907111    0.9999907366 | 
                 - Gap at zero temperature -
    1281 |     0.0470717809    0.0000090912 | 
    1282 |     0.0470721381    0.0000090902 | 
    1283 |     0.0470730451    0.0000090876 | 
    1284 |     0.0470740169    0.0000090848 | 
    1285 |     0.0470746246    0.0000090831 | 
                          ------
    2560 |     0.8476587117    0.0000000000 | 

                       |  Abs_value |  Threshold | Converged
     Delta_Free_energy |   1.75E-04 |   1.00E-06 |        No
     Delta_Energy      |   1.75E-04 |   1.00E-04 |        No
     Delta_Entropy     |   4.78E-07 |   1.00E-04 |       Yes
     Commutator        |   6.52E-06 |   1.00E-05 |       Yes
     Delta_Fermi_level |   2.27E-03 |   1.00E-03 |        No

  Line search of the free energy minimum:
  Step_type        Step             Free_energy   Predicted_free_energy
.   Initial    0.000000    -3613.30366551575116
.    Trial1    0.317153    -3613.30371399414889
.    Trial2    0.577977    -3613.30371292549898
. Quadratic    0.440021    -3613.30371810203633    -3613.30371809370399

--------------------------------------------------------------------------------
  Iter                              Commutator    Free_energy(A=E-TS)     DeltaA
#    3                          0.000004147932   -3613.30371810203633  -5.26E-05

Step                       =       0.440020857859
Energy                     =   -3613.303691652203
Entropy (-TS)              =      -0.000026449821
Free energy (A=E-TS)       =   -3613.303718102036
Est. 0K Energy 0.5*(E+A)   =   -3613.303704877120
Residual Non-orthogonality =       0.000000000000
Residual N_electrons       =      -0.000000000013

Spin          Integrated_Ne            Fermi_level     Delta_Fermi_level
   1      2560.000000001578         0.008159029776             -2.15E-03

                           Spin 1          
     Orb      H-eigenvalues     Occupancies
       1 |    -0.7157069984    1.0000000000 | 
                          ------
    1276 |    -0.0284854510    0.9999905682 | 
    1277 |    -0.0284851554    0.9999905673 | 
    1278 |    -0.0284819999    0.9999905579 | 
    1279 |    -0.0284803554    0.9999905530 | 
    1280 |    -0.0284787212    0.9999905481 | 
                 - Gap at zero temperature -
    1281 |     0.0448641936    0.0000092528 | 
    1282 |     0.0448644918    0.0000092519 | 
    1283 |     0.0448653760    0.0000092494 | 
    1284 |     0.0448666057    0.0000092458 | 
    1285 |     0.0448670654    0.0000092444 | 
                          ------
    2560 |     0.8449083817    0.0000000000 | 

                       |  Abs_value |  Threshold | Converged
     Delta_Free_energy |   5.26E-05 |   1.00E-06 |        No
     Delta_Energy      |   5.21E-05 |   1.00E-04 |       Yes
     Delta_Entropy     |   4.53E-07 |   1.00E-04 |       Yes
     Commutator        |   4.15E-06 |   1.00E-05 |       Yes
     Delta_Fermi_level |   2.15E-03 |   1.00E-03 |        No

  Line search of the free energy minimum:
  Step_type        Step             Free_energy   Predicted_free_energy
.   Initial    0.000000    -3613.30371810203633
.    Trial1    0.440021    -3613.30373492740864
.    Trial2    0.653914    -3613.30371686592525
. Quadratic    0.321919    -3613.30373753797039    -3613.30373754417360

--------------------------------------------------------------------------------
  Iter                              Commutator    Free_energy(A=E-TS)     DeltaA
#    4                          0.000002422216   -3613.30373753797039  -1.94E-05

Step                       =       0.321918953104
Energy                     =   -3613.303710900878
Entropy (-TS)              =      -0.000026637084
Free energy (A=E-TS)       =   -3613.303737537970
Est. 0K Energy 0.5*(E+A)   =   -3613.303724219424
[...]
 C   275 -- C   555       -0.10      5.37000
 C   274 -- C   554       -0.10      5.37000
 C   273 -- C   553       -0.10      5.37000
 C   272 -- C   552       -0.10      5.37000
 C   271 -- C   551       -0.10      5.37000
 C   270 -- C   550       -0.10      5.37000
 C   269 -- C   549       -0.10      5.37000
 C   268 -- C   548       -0.10      5.37000
 C   267 -- C   547       -0.10      5.37000
 C   266 -- C   546       -0.10      5.37000
 C   130 -- C   465       -0.10      5.37000
 C   129 -- C   464       -0.10      5.37000
 C   128 -- C   463       -0.10      5.37000
 C   127 -- C   462       -0.10      5.37000
 C   126 -- C   461       -0.10      5.37000
 C   240 -- C   525       -0.10      5.37000
 C   239 -- C   524       -0.10      5.37000
 C   238 -- C   523       -0.10      5.37000
 C   237 -- C   522       -0.10      5.37000
 C   236 -- C   521       -0.10      5.37000
 C    23 -- C   478       -0.10      5.37202
 C    49 -- C   469       -0.10      5.37202
 C    48 -- C   468       -0.10      5.37202
 C    47 -- C   467       -0.10      5.37202
 C    22 -- C   477       -0.10      5.37202
 C    46 -- C   466       -0.10      5.37202
 C    21 -- C   476       -0.10      5.37202
 C    25 -- C   480       -0.10      5.37202
 C    24 -- C   479       -0.10      5.37202
 C    50 -- C   470       -0.10      5.37202
 C    24 -- C   449       -0.10      5.37202
 C     6 -- C   416       -0.10      5.37202
 C    23 -- C   448       -0.10      5.37202
 C    22 -- C   447       -0.10      5.37202
 C    10 -- C   470       -0.10      5.37202
 C     5 -- C   450       -0.10      5.37202
 C    21 -- C   446       -0.10      5.37202
 C    10 -- C   420       -0.10      5.37202
 C     9 -- C   469       -0.10      5.37202
 C     9 -- C   419       -0.10      5.37202
 C     8 -- C   468       -0.10      5.37202
 C     4 -- C   449       -0.10      5.37202
 C     8 -- C   418       -0.10      5.37202
 C     2 -- C   447       -0.10      5.37202
 C     7 -- C   467       -0.10      5.37202
 C     7 -- C   417       -0.10      5.37202
 C     1 -- C   446       -0.10      5.37202
 C     6 -- C   466       -0.10      5.37202
 C    25 -- C   450       -0.10      5.37202
 C     3 -- C   448       -0.10      5.37202
 C   285 -- C   580       -0.10      5.37202
 C   284 -- C   579       -0.10      5.37202
 C   283 -- C   578       -0.10      5.37202
 C   282 -- C   577       -0.10      5.37202
 C   281 -- C   576       -0.10      5.37202
 C   260 -- C   605       -0.10      5.37202
 C   259 -- C   604       -0.10      5.37202
 C   258 -- C   603       -0.10      5.37202
 C   257 -- C   602       -0.10      5.37202
 C   256 -- C   601       -0.10      5.37202
 C   219 -- C   569       -0.10      5.37202
 C   218 -- C   568       -0.10      5.37202
 C   217 -- C   567       -0.10      5.37202
 C   216 -- C   566       -0.10      5.37202
 C    11 -- C   331       -0.10      5.37202
 C   205 -- C   550       -0.10      5.37202
 C   204 -- C   549       -0.10      5.37202
 C   203 -- C   548       -0.10      5.37202
 C   202 -- C   547       -0.10      5.37202
 C   201 -- C   546       -0.10      5.37202
 C    15 -- C   335       -0.10      5.37202
 C    30 -- C   355       -0.10      5.37202
 C    30 -- C   325       -0.10      5.37202
 C    14 -- C   334       -0.10      5.37202
 C    29 -- C   354       -0.10      5.37202
 C    29 -- C   324       -0.10      5.37202
 C   260 -- C   550       -0.10      5.37202
 C   259 -- C   549       -0.10      5.37202
 C    28 -- C   353       -0.10      5.37202
 C   258 -- C   548       -0.10      5.37202
 C   257 -- C   547       -0.10      5.37202
 C   256 -- C   546       -0.10      5.37202
 C    28 -- C   323       -0.10      5.37202
 C    27 -- C   352       -0.10      5.37202
 C    13 -- C   333       -0.10      5.37202
 C   250 -- C   540       -0.10      5.37202
 C   249 -- C   539       -0.10      5.37202
 C   248 -- C   538       -0.10      5.37202
 C   247 -- C   537       -0.10      5.37202
 C   246 -- C   536       -0.10      5.37202
 C    27 -- C   322       -0.10      5.37202
 C    26 -- C   351       -0.10      5.37202
 C    55 -- C   335       -0.10      5.37202
 C    26 -- C   321       -0.10      5.37202
 C    54 -- C   334       -0.10      5.37202
 C    12 -- C   332       -0.10      5.37202
 C    53 -- C   333       -0.10      5.37202
 C   230 -- C   580       -0.10      5.37202
 C   230 -- C   525       -0.10      5.37202
 C   229 -- C   579       -0.10      5.37202
 C   229 -- C   524       -0.10      5.37202
 C   228 -- C   578       -0.10      5.37202
 C    52 -- C   332       -0.10      5.37202
 C   228 -- C   523       -0.10      5.37202
 C   227 -- C   577       -0.10      5.37202
 C   227 -- C   522       -0.10      5.37202
 C   226 -- C   576       -0.10      5.37202
 C   226 -- C   521       -0.10      5.37202
 C    51 -- C   331       -0.10      5.37202
 C   220 -- C   570       -0.10      5.37202
 C   220 -- C   515       -0.10      5.37202
 C   219 -- C   514       -0.10      5.37202
 C   218 -- C   513       -0.10      5.37202
 C   217 -- C   512       -0.10      5.37202
 C   216 -- C   511       -0.10      5.37202
 C    95 -- C   425       -0.10      5.37202
 C    95 -- C   365       -0.10      5.37202
 C    94 -- C   424       -0.10      5.37202
 C    94 -- C   364       -0.10      5.37202
 C    93 -- C   423       -0.10      5.37202
 C   195 -- C   540       -0.10      5.37202
 C   195 -- C   500       -0.10      5.37202
 C    93 -- C   363       -0.10      5.37202
 C   194 -- C   539       -0.10      5.37202
 C    92 -- C   422       -0.10      5.37202
 C   194 -- C   499       -0.10      5.37202
 C   193 -- C   538       -0.10      5.37202
 C   193 -- C   498       -0.10      5.37202
 C    92 -- C   362       -0.10      5.37202
 C   192 -- C   537       -0.10      5.37202
 C    91 -- C   421       -0.10      5.37202
 C   192 -- C   497       -0.10      5.37202
 C   191 -- C   536       -0.10      5.37202
 C   191 -- C   496       -0.10      5.37202
 C    91 -- C   361       -0.10      5.37202
 C    85 -- C   355       -0.10      5.37202
 C   180 -- C   515       -0.10      5.37202
 C    40 -- C   365       -0.10      5.37202
 C    84 -- C   354       -0.10      5.37202
 C   179 -- C   514       -0.10      5.37202
 C    83 -- C   353       -0.10      5.37202
 C   178 -- C   513       -0.10      5.37202
 C   177 -- C   512       -0.10      5.37202
 C    82 -- C   352       -0.10      5.37202
 C    39 -- C   364       -0.10      5.37202
 C   176 -- C   511       -0.10      5.37202
 C    81 -- C   351       -0.10      5.37202
 C    38 -- C   363       -0.10      5.37202
 C    37 -- C   362       -0.10      5.37202
 C    36 -- C   361       -0.10      5.37202
 C    65 -- C   395       -0.10      5.37202
 C    65 -- C   345       -0.10      5.37202
 C    64 -- C   394       -0.10      5.37202
 C    64 -- C   344       -0.10      5.37202
 C    63 -- C   393       -0.10      5.37202
 C    63 -- C   343       -0.10      5.37202
 C    62 -- C   392       -0.10      5.37202
 C    62 -- C   342       -0.10      5.37202
 C    61 -- C   391       -0.10      5.37202
 C    61 -- C   341       -0.10      5.37202
 C   120 -- C   395       -0.10      5.37202
 C    55 -- C   385       -0.10      5.37202
 C   119 -- C   394       -0.10      5.37202
 C   118 -- C   393       -0.10      5.37202
 C   117 -- C   392       -0.10      5.37202
 C    54 -- C   384       -0.10      5.37202
 C   116 -- C   391       -0.10      5.37202
 C    53 -- C   383       -0.10      5.37202
 C    52 -- C   382       -0.10      5.37202
 C    51 -- C   381       -0.10      5.37202
 C   150 -- C   440       -0.10      5.37202
 C   149 -- C   439       -0.10      5.37202
 C   148 -- C   438       -0.10      5.37202
 C   147 -- C   437       -0.10      5.37202
 C   146 -- C   436       -0.10      5.37202
 C   135 -- C   460       -0.10      5.37202
 C   134 -- C   459       -0.10      5.37202
 C   133 -- C   458       -0.10      5.37202
 C   132 -- C   457       -0.10      5.37202
 C   131 -- C   456       -0.10      5.37202
 C   106 -- C   436       -0.10      5.37202
 C   106 -- C   376       -0.10      5.37202
 C    80 -- C   410       -0.10      5.37202
 C    79 -- C   409       -0.10      5.37202
 C    78 -- C   408       -0.10      5.37202
 C    77 -- C   407       -0.10      5.37202
 C    76 -- C   406       -0.10      5.37202
 C   135 -- C   410       -0.10      5.37202
 C   134 -- C   409       -0.10      5.37202
 C   133 -- C   408       -0.10      5.37202
 C   132 -- C   407       -0.10      5.37202
 C   131 -- C   406       -0.10      5.37202
 C   110 -- C   440       -0.10      5.37202
 C   110 -- C   380       -0.10      5.37202
 C   109 -- C   439       -0.10      5.37202
 C   109 -- C   379       -0.10      5.37202
 C   108 -- C   438       -0.10      5.37202
 C   108 -- C   378       -0.10      5.37202
 C   107 -- C   437       -0.10      5.37202
 C   107 -- C   377       -0.10      5.37202
 C   215 -- C   635       -0.10      5.38000
 C   214 -- C   634       -0.10      5.38000
 C   213 -- C   633       -0.10      5.38000
 C   212 -- C   632       -0.10      5.38000
 C   211 -- C   631       -0.10      5.38000
 C   190 -- C   620       -0.10      5.38000
 C   189 -- C   619       -0.10      5.38000
 C   188 -- C   618       -0.10      5.38000
 C   187 -- C   617       -0.10      5.38000
 C   186 -- C   616       -0.10      5.38000
 C   175 -- C   595       -0.10      5.38000
 C   174 -- C   594       -0.10      5.38000
 C   173 -- C   593       -0.10      5.38000
 C   172 -- C   592       -0.10      5.38000
 C   171 -- C   591       -0.10      5.38000
 C   245 -- C   640       -0.10      5.38000
 C   244 -- C   639       -0.10      5.38000
 C   243 -- C   638       -0.10      5.38000
 C   242 -- C   637       -0.10      5.38000
 C   241 -- C   636       -0.10      5.38000
==================================================


=================== Orbital energy and occupancy information ===================

      Total number of orbitals:    2560
        Occupancy sum (kernel):    1280.000000000
   Occupancy sum (eigenvalues):    1280.000000000
                 HOMO-LUMO gap:       0.072300343 Eh
                 Mid-gap level:       0.095866707 Eh

                        Orbital | Energy (Eh) | Occupancy
                            1    -0.618669728   1.0000000
                        .......   ...........   .........
                         1271     0.059205903   0.9999904
                         1272     0.059208786   0.9999904
                         1273     0.059226417   0.9999903
                         1274     0.059227172   0.9999903
                         1275     0.059246181   0.9999902
                         1276     0.059596492   0.9999891
                         1277     0.059598710   0.9999891
                         1278     0.059676103   0.9999888
                         1279     0.059678991   0.9999888
                         1280     0.059716535   0.9999887
                        ....... -- gap at 0K -- .........
                         1281     0.132016878   0.0000107
                         1282     0.132019664   0.0000107
                         1283     0.132021595   0.0000107
                         1284     0.132022742   0.0000107
                         1285     0.132023073   0.0000107
                         1286     0.132259796   0.0000099
                         1287     0.132262553   0.0000099
                         1288     0.132264520   0.0000099
                         1289     0.132265579   0.0000099
                         1290     0.132265949   0.0000099
                        .......   ...........   .........
                         2560     1.000123429   0.0000000

================================================================================

===================== Writing canonical molecular orbitals =====================
| Orbital  Energy (eV)  Norm     |
| HOMO      1.62496960  1.000000 | Writing "5.500496_GO_manual_4x64graphite_HOMO.cube" ... done
Writing "5.500496_GO_manual_4x64graphite_HOMO.dx" ... done
| LUMO      3.59236205  1.000000 | Writing "5.500496_GO_manual_4x64graphite_LUMO.cube" ... done
Writing "5.500496_GO_manual_4x64graphite_LUMO.dx" ... done
================================================================================
 
===================== Density of States (DOS) calculation ======================
Writing "5.500496_GO_manual_4x64graphite_DOS.txt" ...  done
================================================================================
 
Writing bands to file "5.500496_GO_manual_4x64graphite.val_bands" ... done
 
================ Projected Density of States (pDOS) calculation ================
 
Constructing AM resolved functions  ...... done
Writing NGWF plot files in formats: CUBE DX ...  done
 
Performing overlap integrals ...  done
 
Computing pDOS weights ...  done
 
All bands spilling parameter =   2.56 %
Occupancy-weighted spilling parameter =   1.00 %
 
 => Outputting data for OptaDOS <=
 
Writing pDOS weights to file "5.500496_GO_manual_4x64graphite.val_pdos_bin" ... done
 
Writing band gradients to file "5.500496_GO_manual_4x64graphite.val_dome_bin" ... done
 
Writing Castep output cell file to "5.500496_GO_manual_4x64graphite-out.cell" ... done
 
 => Computing Gaussian smeared pDOS <= 
Writing "5.500496_GO_manual_4x64graphite_PDOS.txt" ...  done
 
 => Computing Occupancy-weighted Gaussian smeared pDOS <= 
Writing "5.500496_GO_manual_4x64graphite_occ_PDOS.txt" ...  done
  => Band centres: 
 S band centre of group 1:  -13.562054 eV
 P band centre of group 1:   -6.483196 eV
  Band centres done. <=
  => Integrated number of electrons in each AM band: 
 S num electrons of group 1:  571.412005
 P num electrons of group 1: 1962.862789
  Integrated number of electrons done. <=
================================================================================

------------------------------ TIMING INFORMATION ------------------------------
AVERAGE TIME:    2086.487s on     40 node(s)                                    
TOTAL TIME:      2086.488s on     40 node(s)                                    
================= AVERAGE TIMINGS FROM ALL NODES (CUMULATIVE) ==================
|| TAG                                    #calls    cpu time   %total  Gflops ||
|| work_imbalance                       :     1        0.00s   0.000%  ------ ||
|| paw_tcore_density                    :     1        0.01s   0.000%  ------ ||
|| paw_tcore_hartree_on_grid            :     1        0.01s   0.001%  ------ ||
|| paw_sphere_density_on_grid           :     1        0.01s   0.001%  ------ ||
|| sparse_set_to_garbage                :   123        0.01s   0.001%  ------ ||
|| paw_dij_hartree                      :   244        0.03s   0.001%  ------ ||
|| basis_extract_function_from_box      :  1408        0.06s   0.003%  ------ ||
|| pseudo_make_structure_factor         :     1        0.08s   0.004%  ------ ||
|| paw_species_calc_proj_prec_mat       :     1        0.12s   0.006%  ------ ||
|| density_init_guess_real              :     1        0.18s   0.009%  ------ ||
|| paw_dataset_init                     :     1        0.23s   0.011%  ------ ||
|| ngwfs_initialise_from_radial         :     2        0.67s   0.032%  ------ ||
|| sparse_init                          :     1        0.74s   0.035%  ------ ||
|| restart_kernel_write                 :    12        1.23s   0.059%  ------ ||
|| dense_normal_eigensolve              :     1        1.30s   0.062%  ------ ||
|| hartree_on_grid                      :   184        1.87s   0.090%  ------ ||
|| projectors_init_fftbox_recip         :   111        2.23s   0.107%  ------ ||
|| fourier_apply_box_pair               :  2080        3.45s   0.165% 559.240 ||
|| basis_copy_function_to_box           : 17600        3.80s   0.182%  ------ ||
|| augmentation_screen_dij              :   189        4.03s   0.193%  ------ ||
|| sparse_embed_hotelling_invert_embed  :    21        6.17s   0.296%  ------ ||
|| sparse_trace                         :  2204        6.27s   0.300%  ------ ||
|| ewald_calculate_energy               :     1        6.64s   0.318%  ------ ||
|| sw_init                              :     1        6.74s   0.323%  ------ ||
|| ngwf_gradient_coeffs                 :    11        6.85s   0.328%  ------ ||
|| cell_grid_deposit_box_real           : 23728       12.15s   0.582%  ------ ||
|| cell_grid_extract_box_real           :  7452       17.43s   0.835%  ------ ||
|| fourier_apply_cell_backward          :  5675       18.18s   0.871%  62.151 ||
|| paw_dij_xc                           :   244       19.83s   0.950%  ------ ||
|| fourier_apply_cell_forward           :  5308       20.09s   0.963%  52.594 ||
|| density_fftbox_deposit_to_cell       : 11776       23.22s   1.113%  ------ ||
|| aug_nonlocal_mat                     :   233       24.08s   1.154%  ------ ||
|| function_ops_brappd_ketppd           :    44       24.77s   1.187%  ------ ||
|| projectors_func_ovlp_box             :    22       25.05s   1.201%  ------ ||
|| augmentation_density_on_grid         :   184       28.78s   1.379%  ------ ||
|| hamiltonian_energy_components        :     3       35.24s   1.689%  ------ ||
|| integrals_kinetic                    :    21       44.88s   2.151%  ------ ||
|| eigenstates_pdos                     :     1       51.16s   2.452%  ------ ||
|| eigenstates_calculate                :     1       56.37s   2.702%  ------ ||
|| dense_eigensolve                     :   159       70.22s   3.365%  ------ ||
|| xc_energy_potential                  :   183       75.34s   3.611%  ------ ||
|| sparse_product                       :  2256       79.44s   3.807%  ------ ||
|| potential_apply_to_ngwf_batch        :   232       87.12s   4.175%  ------ ||
|| nlxc_vdw_energy                      :   366       87.71s   4.204%  ------ ||
|| projectors_gradient_batch            :    44       90.00s   4.314%  ------ ||
|| basis_dot_function_with_box          : 3.411M      92.52s   4.434%  ------ ||
|| properties_calculate                 :     1      112.84s   5.408%  ------ ||
|| restart_ngwfs_tightbox_output        :    10      114.16s   5.471%  ------ ||
|| integrals_locpot_mat_els_batch       :   232      125.62s   6.021%  ------ ||
|| projectors_grad_precond_batch        :    44      132.90s   6.370%  ------ ||
|| edft_diag_ngwf_ham                   :   158      166.93s   8.001%  ------ ||
|| fourier_apply_box                    : 55616      172.56s   8.270% 976.537 ||
|| integrals_locpot_dbl_grid            :    58      213.54s  10.234%  ------ ||
|| density_fftbox_interpolate_multiply  : 11776      227.96s  10.926%  ------ ||
|| ngwf_gradient_build_batch            :    44      255.95s  12.267%  ------ ||
|| basis_add_function_to_box            : 10.04M     263.88s  12.647%  ------ ||
|| density_batch_interp_deposit         :   736      274.85s  13.173%  ------ ||
|| edft_apply_smearing_operator         :   158      331.10s  15.869%  ------ ||
|| density_batch_row_sums               :   736      351.67s  16.855%  ------ ||
|| ngwf_gradient_batch                  :    44      363.33s  17.413%  ------ ||
|| ngwf_gradient_lnv                    :    11      378.16s  18.124%  ------ ||
|| density_on_dbl_grid                  :   184      638.09s  30.582%  ------ ||
|| hamiltonian_lhxc_calculate           :   179      731.00s  35.035%  ------ ||
|| edft_calculate                       :    11     1266.66s  60.708%  ------ ||
|| ngwf_cg_optimise                     :     1     1953.90s  93.646%  ------ ||
|| total_time                           :     1     2086.49s 100.000%  ------ ||
================================================================================
Overhead of generating timer report: 
- 0 ms averaging over threads,
- 6 ms ensuring consistency across MPI ranks,
- 0 ms printing in order.

Job completed: 09-03-2020 12:43 (-0000)

