 +---------------------------------------------------------------+
 |                                                               |
 |        ####### #     # ####### ####### ####### ######         |
 |        #     # ##    # #          #    #       #     #        |
 |        #     # # #   # #          #    #       #     #        |
 |        #     # #  #  # #####      #    #####   ######         |
 |        #     # #   # # #          #    #       #              |
 |        #     # #    ## #          #    #       #              |
 |        ####### #     # #######    #    ####### #              |
 |                                                               |
 |        Linear-Scaling Ab Initio Total Energy Program          |
 |                                                               |
 |          Release for academic collaborators of ODG            |
 |                                             Version 5.3.2.12  |
 |                                                               |
 +---------------------------------------------------------------+
 |                                                               |
 |  Authors:                                                     |
 |  Jacek Dziedzic, Peter D. Haynes, Nicholas D. M. Hine,        |
 |  Arash. A. Mostofi, Mike C. Payne and Chris-Kriton Skylaris   |
 |                                                               |
 |  Contributors:                                                |
 |  J. Aarons, L. Andrinopoulos, P. W. Avraam, R. A. Bell,       |
 |  A. Bhandari, G. A. Bramley, R. J. Charlton, S. J. Clark,     |
 |  R. J. Clements, G. C. Constantinescu, F. Corsetti,           |
 |  N. Corsini, O. Dieguez, S. M. M. Dubois, K. K. B. Duff,      |
 |  J. M. Escartin, A. Greco, H. Helal, Q. O. Hill, L. P. Lee,   |
 |  J.-H. Li, E. B. Linscott, G. Moynihan, D. D. O`Regan,        |
 |  O. K. Okan, M. J. S. Phipps, C. J. Pickard,                  |
 |  J. C. A. Prentice, M. I. J. Probert, L. E. Ratcliff,         |
 |  M. Robinson, A. Ruiz Serrano, J. S. Spencer, E. W. Tait,     |
 |  G. Teobaldi, D. Turban, V. Vitale, K. A. Wilkinson,          |
 |  C. Weber, J. C. Womack, N. Yeung and T. J. Zuehlsdorff       |
 |                                                               |
 |                                   Copyright (c) 2004-2020     |
 |                                                               |
 |  Please cite:                                                 |
 |  "Introducing ONETEP: Linear-scaling density functional       |
 |   simulations on parallel computers".                         |
 |   C.-K. Skylaris, P. D. Haynes, A. A. Mostofi, M. C. Payne.   |
 |   J. Chem. Phys. 122 084119 (2005).                           |
 |                                                               |
 |          in all publications arising from your use of ONETEP. |
 |                                                               |
 +---------------------------------------------------------------+
 |                                                               |
 |   ONETEP is based on developments described in the following  |
 |   publications:                                               |
 |                                                               |
 |  "Nonorthogonal generalized Wannier function pseudopotential  |
 |   plane-wave method".                                         |
 |   C.-K. Skylaris, A. A. Mostofi, P. D. Haynes, O. Dieguez,    |
 |   M. C. Payne.                                                |
 |   Phys. Rev. B 66 035119 (2002).                              |
 |                                                               |
 |  "Preconditioned iterative minimization for linear-scaling    |
 |   electronic structure calculations".                         |
 |   A. A. Mostofi, P. D. Haynes, C.-K. Skylaris, M. C. Payne.   |
 |   J. Chem. Phys. 119(17), pp.8842-8848 (2003).                |
 |                                                               |
 |  "Total-energy calculations on a real space grid with         |
 |   localized functions and a plane-wave basis".                |
 |   A. A. Mostofi, C.-K. Skylaris, P. D. Haynes, M. C. Payne.   |
 |   Comput. Phys. Commun. 147, pp.788-802 (2002).               |
 |                                                               |
 |  "Accurate kinetic energy evaluation in electronic structure  |
 |   calculations with localized functions on real space grids"  |
 |   C.-K. Skylaris, A. A. Mostofi, P. D. Haynes, C. J. Pickard, |
 |   M. C. Payne.                                                |
 |   Comput. Phys. Commun. 140, pp.315-322 (2001).               |
 |                                                               |
 |  "Accurate ionic forces and geometry optimization in linear-  |
 |   scaling density-functional theory with local orbitals"      |
 |   N. D. M. Hine, M. Robinson, P. D. Haynes, C.-K. Skylaris,   |
 |   M. C. Payne, and A. A. Mostofi.                             |
 |   Phys. Rev. B 83 195102 (2011).                              |
 |                                                               |
 +---------------------------------------------------------------+

Job started: 09-03-2020 13:38 (-0000)
 
Reading parameters from file "6.03712_GO_manual_4x64graphite.dat" ...

WARNING: "cutoff_energy" not specified, but "psinc_spacing" specified.
         Using the latter to set the KE cutoff energy to  732.32021eV,
         thus *overriding* the default.

... done

If your calculation crashes here, before "Checking processes and threads..."
is displayed, then your stack size is insufficient.
If so, use "ulimit -s unlimited" at runtime.
You can disable this check with "check_stack_size F".

Checking processes and threads...
   Determining the default number of threads...
      No default threads set at compilation time: defaulting to 1.
      OpenMP library call suggests 4 threads.
      Hybrid MPI-OpenMP compilation detected.
      Number of MPI processes > 1.
      OMP_NUM_THREADS environment variable present and
      its value matches the one obtained from the OpenMP library call.
      Using this value as default.
      Default threads: 4
      Default applies to threads_max and threads_num_fftboxes.
      Settings in the input file override this default.
   ... done

   Running with 40 MPI processes.
   There are 10 MPI processes running on the same node as the root process.
   Each MPI process is using: 
               1 threads for simulation cell FFTs.
               1 threads for parallel FFT box operations.
               4 threads for loops over batched FFT box operations.
               4 threads in other parallel regions.
... done

Basic input checks...
Resetting ngwf_cg_rotate to TRUE for EDFT calculations
... done

Reading geometry and species blocks from file "6.03712_GO_manual_4x64graphite.dat" ...
    
  PSINC grid spacing along a1 set to   0.511215680000a0 from input file.
  PSINC grid spacing along a2 set to   0.531284090000a0 from input file.
  PSINC grid spacing along a3 set to   0.507045630000a0 from input file.
  Number of PPD points along a3 set to 1.  This is 
  the default value, it may have been provided also in the input file.
... done
 Writing xyz coordinates to file "6.03712_GO_manual_4x64graphite.xyz" ... done


--------------------------------------------------------------------------------
---------------------------------- INPUT FILE ----------------------------------
--------------------------------------------------------------------------------

task : singlepoint                                                              
do_properties : true                                                            
dx_format T                                                                     
edft T                                                                          
output_detail VERBOSE                                                           
write_xyz T                                                                     
xc_functional AVV10S                                                            
PSINC_SPACING 0.51121568 0.53128409 0.50704563                                  
paw T                                                                           
pdos_max_l = 2                                                                  
dos_smear  0.1 eV                                                               
popn_calculate T                                                                
PDOS_PSEUDOATOMIC T                                                             
PDOS_REDUCE_SWS F                                                               
PDOS_CONSTRUCT_BASIS F                                                          
PDOS_LOWDIN T                                                                   
PDOS_ORTH_ATOM_BLOCKS F                                                         
PDOS_LCAO_OPTIMIZE F                                                            
pdos_optados_output T                                                           
homo_plot 0                                                                     
lumo_plot 0                                                                     
homo_dens_plot -1                                                               
lumo_dens_plot -1                                                               
%BLOCK SPECIES                                                                  
C C 6 4 9.0                                                                     
%ENDBLOCK SPECIES                                                               
%BLOCK SPECIES_POT                                                              
C "~/pp/paw/c_pbe_abinit.paw"                                                   
%ENDBLOCK SPECIES_POT                                                           
%BLOCK SPECIES_ATOMIC_SET                                                       
C "SOLVE conf=2s2 2p2"                                                          
%ENDBLOCK SPECIES_ATOMIC_SET                                                    
%BLOCK LATTICE_CART                                                             
32.21  0.00  0.00                                                               
0.00 18.59  0.00                                                                
0.00  0.00 114.09                                                               
%ENDBLOCK LATTICE_CART                                                          
%BLOCK POSITIONS_ABS                                                            
C  0.00  0.00  5.70                                                             
C  0.00  0.00 28.52                                                             
C  0.00  0.00 51.34                                                             
C  0.00  0.00 74.16                                                             
C  0.00  0.00 96.97                                                             
C  0.00  4.65  5.70                                                             
C  0.00  4.65 28.52                                                             
C  0.00  4.65 51.34                                                             
C  0.00  4.65 74.16                                                             
C  0.00  4.65 96.97                                                             
C  4.03  2.32  5.70                                                             
C  4.03  2.32 28.52                                                             
C  4.03  2.32 51.34                                                             
C  4.03  2.32 74.16                                                             
C  4.03  2.32 96.97                                                             
C  8.05  0.00  5.70                                                             
C  8.05  0.00 28.52                                                             
C  8.05  0.00 51.34                                                             
C  8.05  0.00 74.16                                                             
C  8.05  0.00 96.97                                                             
C  0.00  9.30  5.70                                                             
C  0.00  9.30 28.52                                                             
C  0.00  9.30 51.34                                                             
C  0.00  9.30 74.16                                                             
C  0.00  9.30 96.97                                                             
C  4.03  6.97  5.70                                                             
C  4.03  6.97 28.52                                                             
C  4.03  6.97 51.34                                                             
C  4.03  6.97 74.16                                                             
C  4.03  6.97 96.97                                                             
C  8.05  4.65  5.70                                                             
C  8.05  4.65 28.52                                                             
C  8.05  4.65 51.34                                                             
C  8.05  4.65 74.16                                                             
C  8.05  4.65 96.97                                                             
C 12.08  2.32  5.70                                                             
C 12.08  2.32 28.52                                                             
C 12.08  2.32 51.34                                                             
C 12.08  2.32 74.16                                                             
C 12.08  2.32 96.97                                                             
C 16.10  0.00  5.70                                                             
C 16.10  0.00 28.52                                                             
C 16.10  0.00 51.34                                                             
C 16.10  0.00 74.16                                                             
C 16.10  0.00 96.97                                                             
C  0.00 13.95  5.70                                                             
C  0.00 13.95 28.52                                                             
C  0.00 13.95 51.34                                                             
C  0.00 13.95 74.16                                                             
C  0.00 13.95 96.97                                                             
C  4.03 11.62  5.70                                                             
C  4.03 11.62 28.52                                                             
C  4.03 11.62 51.34                                                             
C  4.03 11.62 74.16                                                             
C  4.03 11.62 96.97                                                             
C  8.05  9.30  5.70                                                             
C  8.05  9.30 28.52                                                             
C  8.05  9.30 51.34                                                             
C  8.05  9.30 74.16                                                             
C  8.05  9.30 96.97                                                             
C 12.08  6.97  5.70                                                             
C 12.08  6.97 28.52                                                             
C 12.08  6.97 51.34                                                             
C 12.08  6.97 74.16                                                             
C 12.08  6.97 96.97                                                             
C 16.10  4.65  5.70                                                             
C 16.10  4.65 28.52                                                             
C 16.10  4.65 51.34                                                             
C 16.10  4.65 74.16                                                             
C 16.10  4.65 96.97                                                             
C 20.13  2.32  5.70                                                             
C 20.13  2.32 28.52                                                             
C 20.13  2.32 51.34                                                             
C 20.13  2.32 74.16                                                             
C 20.13  2.32 96.97                                                             
C 24.16  0.00  5.70                                                             
C 24.16  0.00 28.52                                                             
C 24.16  0.00 51.34                                                             
C 24.16  0.00 74.16                                                             
C 24.16  0.00 96.97                                                             
C  4.03 16.27  5.70                                                             
C  4.03 16.27 28.52                                                             
C  4.03 16.27 51.34                                                             
C  4.03 16.27 74.16                                                             
C  4.03 16.27 96.97                                                             
C  8.05 13.95  5.70                                                             
C  8.05 13.95 28.52                                                             
C  8.05 13.95 51.34                                                             
C  8.05 13.95 74.16                                                             
C  8.05 13.95 96.97                                                             
C 12.08 11.62  5.70                                                             
C 12.08 11.62 28.52                                                             
C 12.08 11.62 51.34                                                             
C 12.08 11.62 74.16                                                             
C 12.08 11.62 96.97                                                             
C 16.10  9.30  5.70                                                             
C 16.10  9.30 28.52                                                             
C 16.10  9.30 51.34                                                             
C 16.10  9.30 74.16                                                             
C 16.10  9.30 96.97                                                             
C 20.13  6.97  5.70                                                             
C 20.13  6.97 28.52                                                             
C 20.13  6.97 51.34                                                             
C 20.13  6.97 74.16                                                             
C 20.13  6.97 96.97                                                             
C 24.16  4.65  5.70                                                             
C 24.16  4.65 28.52                                                             
C 24.16  4.65 51.34                                                             
C 24.16  4.65 74.16                                                             
C 24.16  4.65 96.97                                                             
C 28.18  2.32  5.70                                                             
C 28.18  2.32 28.52                                                             
C 28.18  2.32 51.34                                                             
C 28.18  2.32 74.16                                                             
C 28.18  2.32 96.97                                                             
C 12.08 16.27  5.70                                                             
C 12.08 16.27 28.52                                                             
C 12.08 16.27 51.34                                                             
C 12.08 16.27 74.16                                                             
C 12.08 16.27 96.97                                                             
C 16.10 13.95  5.70                                                             
C 16.10 13.95 28.52                                                             
C 16.10 13.95 51.34                                                             
C 16.10 13.95 74.16                                                             
C 16.10 13.95 96.97                                                             
C 20.13 11.62  5.70                                                             
C 20.13 11.62 28.52                                                             
C 20.13 11.62 51.34                                                             
C 20.13 11.62 74.16                                                             
C 20.13 11.62 96.97                                                             
C 24.16  9.30  5.70                                                             
C 24.16  9.30 28.52                                                             
C 24.16  9.30 51.34                                                             
C 24.16  9.30 74.16                                                             
C 24.16  9.30 96.97                                                             
C 28.18  6.97  5.70                                                             
C 28.18  6.97 28.52                                                             
C 28.18  6.97 51.34                                                             
C 28.18  6.97 74.16                                                             
C 28.18  6.97 96.97                                                             
C 20.13 16.27  5.70                                                             
C 20.13 16.27 28.52                                                             
C 20.13 16.27 51.34                                                             
C 20.13 16.27 74.16                                                             
C 20.13 16.27 96.97                                                             
C 24.16 13.95  5.70                                                             
C 24.16 13.95 28.52                                                             
C 24.16 13.95 51.34                                                             
C 24.16 13.95 74.16                                                             
C 24.16 13.95 96.97                                                             
C 28.18 11.62  5.70                                                             
C 28.18 11.62 28.52                                                             
C 28.18 11.62 51.34                                                             
C 28.18 11.62 74.16                                                             
C 28.18 11.62 96.97                                                             
C 28.18 16.27  5.70                                                             
C 28.18 16.27 28.52                                                             
C 28.18 16.27 51.34                                                             
C 28.18 16.27 74.16                                                             
C 28.18 16.27 96.97                                                             
C  0.00  0.00 17.11                                                             
C  0.00  0.00 39.93                                                             
C  0.00  0.00 62.75                                                             
C  0.00  0.00 85.56                                                             
C  0.00  0.00 108.38                                                            
C  0.00  4.65 17.11                                                             
C  0.00  4.65 39.93                                                             
C  0.00  4.65 62.75                                                             
C  0.00  4.65 85.56                                                             
C  0.00  4.65 108.38                                                            
C  4.03  2.32 17.11                                                             
C  4.03  2.32 39.93                                                             
C  4.03  2.32 62.75                                                             
C  4.03  2.32 85.56                                                             
C  4.03  2.32 108.38                                                            
C  8.05  0.00 17.11                                                             
C  8.05  0.00 39.93                                                             
C  8.05  0.00 62.75                                                             
C  8.05  0.00 85.56                                                             
C  8.05  0.00 108.38                                                            
C  0.00  9.30 17.11                                                             
C  0.00  9.30 39.93                                                             
C  0.00  9.30 62.75                                                             
C  0.00  9.30 85.56                                                             
C  0.00  9.30 108.38                                                            
C  4.03  6.97 17.11                                                             
C  4.03  6.97 39.93                                                             
C  4.03  6.97 62.75                                                             
C  4.03  6.97 85.56                                                             
C  4.03  6.97 108.38                                                            
C  8.05  4.65 17.11                                                             
C  8.05  4.65 39.93                                                             
C  8.05  4.65 62.75                                                             
C  8.05  4.65 85.56                                                             
C  8.05  4.65 108.38                                                            
C 12.08  2.32 17.11                                                             
C 12.08  2.32 39.93                                                             
C 12.08  2.32 62.75                                                             
C 12.08  2.32 85.56                                                             
C 12.08  2.32 108.38                                                            
C 16.10  0.00 17.11                                                             
C 16.10  0.00 39.93                                                             
C 16.10  0.00 62.75                                                             
C 16.10  0.00 85.56                                                             
C 16.10  0.00 108.38                                                            
C  0.00 13.95 17.11                                                             
C  0.00 13.95 39.93                                                             
C  0.00 13.95 62.75                                                             
C  0.00 13.95 85.56                                                             
C  0.00 13.95 108.38                                                            
C  4.03 11.62 17.11                                                             
C  4.03 11.62 39.93                                                             
C  4.03 11.62 62.75                                                             
C  4.03 11.62 85.56                                                             
C  4.03 11.62 108.38                                                            
C  8.05  9.30 17.11                                                             
C  8.05  9.30 39.93                                                             
C  8.05  9.30 62.75                                                             
C  8.05  9.30 85.56                                                             
C  8.05  9.30 108.38                                                            
C 12.08  6.97 17.11                                                             
C 12.08  6.97 39.93                                                             
C 12.08  6.97 62.75                                                             
C 12.08  6.97 85.56                                                             
C 12.08  6.97 108.38                                                            
C 16.10  4.65 17.11                                                             
C 16.10  4.65 39.93                                                             
C 16.10  4.65 62.75                                                             
C 16.10  4.65 85.56                                                             
C 16.10  4.65 108.38                                                            
C 20.13  2.32 17.11                                                             
C 20.13  2.32 39.93                                                             
C 20.13  2.32 62.75                                                             
C 20.13  2.32 85.56                                                             
C 20.13  2.32 108.38                                                            
C 24.16  0.00 17.11                                                             
C 24.16  0.00 39.93                                                             
C 24.16  0.00 62.75                                                             
C 24.16  0.00 85.56                                                             
C 24.16  0.00 108.38                                                            
C  4.03 16.27 17.11                                                             
C  4.03 16.27 39.93                                                             
C  4.03 16.27 62.75                                                             
C  4.03 16.27 85.56                                                             
C  4.03 16.27 108.38                                                            
C  8.05 13.95 17.11                                                             
C  8.05 13.95 39.93                                                             
C  8.05 13.95 62.75                                                             
C  8.05 13.95 85.56                                                             
C  8.05 13.95 108.38                                                            
C 12.08 11.62 17.11                                                             
C 12.08 11.62 39.93                                                             
C 12.08 11.62 62.75                                                             
C 12.08 11.62 85.56                                                             
C 12.08 11.62 108.38                                                            
C 16.10  9.30 17.11                                                             
C 16.10  9.30 39.93                                                             
C 16.10  9.30 62.75                                                             
C 16.10  9.30 85.56                                                             
C 16.10  9.30 108.38                                                            
C 20.13  6.97 17.11                                                             
C 20.13  6.97 39.93                                                             
C 20.13  6.97 62.75                                                             
C 20.13  6.97 85.56                                                             
C 20.13  6.97 108.38                                                            
C 24.16  4.65 17.11                                                             
C 24.16  4.65 39.93                                                             
C 24.16  4.65 62.75                                                             
C 24.16  4.65 85.56                                                             
C 24.16  4.65 108.38                                                            
C 28.18  2.32 17.11                                                             
C 28.18  2.32 39.93                                                             
C 28.18  2.32 62.75                                                             
C 28.18  2.32 85.56                                                             
C 28.18  2.32 108.38                                                            
C 12.08 16.27 17.11                                                             
C 12.08 16.27 39.93                                                             
C 12.08 16.27 62.75                                                             
C 12.08 16.27 85.56                                                             
C 12.08 16.27 108.38                                                            
C 16.10 13.95 17.11                                                             
C 16.10 13.95 39.93                                                             
C 16.10 13.95 62.75                                                             
C 16.10 13.95 85.56                                                             
C 16.10 13.95 108.38                                                            
C 20.13 11.62 17.11                                                             
C 20.13 11.62 39.93                                                             
C 20.13 11.62 62.75                                                             
C 20.13 11.62 85.56                                                             
C 20.13 11.62 108.38                                                            
C 24.16  9.30 17.11                                                             
C 24.16  9.30 39.93                                                             
C 24.16  9.30 62.75                                                             
C 24.16  9.30 85.56                                                             
C 24.16  9.30 108.38                                                            
C 28.18  6.97 17.11                                                             
C 28.18  6.97 39.93                                                             
C 28.18  6.97 62.75                                                             
C 28.18  6.97 85.56                                                             
C 28.18  6.97 108.38                                                            
C 20.13 16.27 17.11                                                             
C 20.13 16.27 39.93                                                             
C 20.13 16.27 62.75                                                             
C 20.13 16.27 85.56                                                             
C 20.13 16.27 108.38                                                            
C 24.16 13.95 17.11                                                             
C 24.16 13.95 39.93                                                             
C 24.16 13.95 62.75                                                             
C 24.16 13.95 85.56                                                             
C 24.16 13.95 108.38                                                            
C 28.18 11.62 17.11                                                             
C 28.18 11.62 39.93                                                             
C 28.18 11.62 62.75                                                             
C 28.18 11.62 85.56                                                             
C 28.18 11.62 108.38                                                            
C 28.18 16.27 17.11                                                             
C 28.18 16.27 39.93                                                             
C 28.18 16.27 62.75                                                             
C 28.18 16.27 85.56                                                             
C 28.18 16.27 108.38                                                            
C  1.34  2.32  5.70                                                             
C  1.34  2.32 28.52                                                             
C  1.34  2.32 51.34                                                             
C  1.34  2.32 74.16                                                             
C  1.34  2.32 96.97                                                             
C  5.37  0.00  5.70                                                             
C  5.37  0.00 28.52                                                             
C  5.37  0.00 51.34                                                             
C  5.37  0.00 74.16                                                             
C  5.37  0.00 96.97                                                             
C  1.34  6.97  5.70                                                             
C  1.34  6.97 28.52                                                             
C  1.34  6.97 51.34                                                             
C  1.34  6.97 74.16                                                             
C  1.34  6.97 96.97                                                             
C  5.37  4.65  5.70                                                             
C  5.37  4.65 28.52                                                             
C  5.37  4.65 51.34                                                             
C  5.37  4.65 74.16                                                             
C  5.37  4.65 96.97                                                             
C  9.39  2.32  5.70                                                             
C  9.39  2.32 28.52                                                             
C  9.39  2.32 51.34                                                             
C  9.39  2.32 74.16                                                             
C  9.39  2.32 96.97                                                             
C 13.42  0.00  5.70                                                             
C 13.42  0.00 28.52                                                             
C 13.42  0.00 51.34                                                             
C 13.42  0.00 74.16                                                             
C 13.42  0.00 96.97                                                             
C  1.34 11.62  5.70                                                             
C  1.34 11.62 28.52                                                             
C  1.34 11.62 51.34                                                             
C  1.34 11.62 74.16                                                             
C  1.34 11.62 96.97                                                             
C  5.37  9.30  5.70                                                             
C  5.37  9.30 28.52                                                             
C  5.37  9.30 51.34                                                             
C  5.37  9.30 74.16                                                             
C  5.37  9.30 96.97                                                             
C  9.39  6.97  5.70                                                             
C  9.39  6.97 28.52                                                             
C  9.39  6.97 51.34                                                             
C  9.39  6.97 74.16                                                             
C  9.39  6.97 96.97                                                             
C 13.42  4.65  5.70                                                             
C 13.42  4.65 28.52                                                             
C 13.42  4.65 51.34                                                             
C 13.42  4.65 74.16                                                             
C 13.42  4.65 96.97                                                             
C 17.45  2.32  5.70                                                             
C 17.45  2.32 28.52                                                             
C 17.45  2.32 51.34                                                             
C 17.45  2.32 74.16                                                             
C 17.45  2.32 96.97                                                             
C 21.47  0.00  5.70                                                             
C 21.47  0.00 28.52                                                             
C 21.47  0.00 51.34                                                             
C 21.47  0.00 74.16                                                             
C 21.47  0.00 96.97                                                             
C  1.34 16.27  5.70                                                             
C  1.34 16.27 28.52                                                             
C  1.34 16.27 51.34                                                             
C  1.34 16.27 74.16                                                             
C  1.34 16.27 96.97                                                             
C  5.37 13.95  5.70                                                             
C  5.37 13.95 28.52                                                             
C  5.37 13.95 51.34                                                             
C  5.37 13.95 74.16                                                             
C  5.37 13.95 96.97                                                             
C  9.39 11.62  5.70                                                             
C  9.39 11.62 28.52                                                             
C  9.39 11.62 51.34                                                             
C  9.39 11.62 74.16                                                             
C  9.39 11.62 96.97                                                             
C 13.42  9.30  5.70                                                             
C 13.42  9.30 28.52                                                             
C 13.42  9.30 51.34                                                             
C 13.42  9.30 74.16                                                             
C 13.42  9.30 96.97                                                             
C 17.45  6.97  5.70                                                             
C 17.45  6.97 28.52                                                             
C 17.45  6.97 51.34                                                             
C 17.45  6.97 74.16                                                             
C 17.45  6.97 96.97                                                             
C 21.47  4.65  5.70                                                             
C 21.47  4.65 28.52                                                             
C 21.47  4.65 51.34                                                             
C 21.47  4.65 74.16                                                             
C 21.47  4.65 96.97                                                             
C 25.50  2.32  5.70                                                             
C 25.50  2.32 28.52                                                             
C 25.50  2.32 51.34                                                             
C 25.50  2.32 74.16                                                             
C 25.50  2.32 96.97                                                             
C 29.52  0.00  5.70                                                             
C 29.52  0.00 28.52                                                             
C 29.52  0.00 51.34                                                             
C 29.52  0.00 74.16                                                             
C 29.52  0.00 96.97                                                             
C  9.39 16.27  5.70                                                             
C  9.39 16.27 28.52                                                             
C  9.39 16.27 51.34                                                             
C  9.39 16.27 74.16                                                             
C  9.39 16.27 96.97                                                             
C 13.42 13.95  5.70                                                             
C 13.42 13.95 28.52                                                             
C 13.42 13.95 51.34                                                             
C 13.42 13.95 74.16                                                             
C 13.42 13.95 96.97                                                             
C 17.45 11.62  5.70                                                             
C 17.45 11.62 28.52                                                             
C 17.45 11.62 51.34                                                             
C 17.45 11.62 74.16                                                             
C 17.45 11.62 96.97                                                             
C 21.47  9.30  5.70                                                             
C 21.47  9.30 28.52                                                             
C 21.47  9.30 51.34                                                             
C 21.47  9.30 74.16                                                             
C 21.47  9.30 96.97                                                             
C 25.50  6.97  5.70                                                             
C 25.50  6.97 28.52                                                             
C 25.50  6.97 51.34                                                             
C 25.50  6.97 74.16                                                             
C 25.50  6.97 96.97                                                             
C 29.52  4.65  5.70                                                             
C 29.52  4.65 28.52                                                             
C 29.52  4.65 51.34                                                             
C 29.52  4.65 74.16                                                             
C 29.52  4.65 96.97                                                             
C 17.45 16.27  5.70                                                             
C 17.45 16.27 28.52                                                             
C 17.45 16.27 51.34                                                             
C 17.45 16.27 74.16                                                             
C 17.45 16.27 96.97                                                             
C 21.47 13.95  5.70                                                             
C 21.47 13.95 28.52                                                             
C 21.47 13.95 51.34                                                             
C 21.47 13.95 74.16                                                             
C 21.47 13.95 96.97                                                             
C 25.50 11.62  5.70                                                             
C 25.50 11.62 28.52                                                             
C 25.50 11.62 51.34                                                             
C 25.50 11.62 74.16                                                             
C 25.50 11.62 96.97                                                             
C 29.52  9.30  5.70                                                             
C 29.52  9.30 28.52                                                             
C 29.52  9.30 51.34                                                             
C 29.52  9.30 74.16                                                             
C 29.52  9.30 96.97                                                             
C 25.50 16.27  5.70                                                             
C 25.50 16.27 28.52                                                             
C 25.50 16.27 51.34                                                             
C 25.50 16.27 74.16                                                             
C 25.50 16.27 96.97                                                             
C 29.52 13.95  5.70                                                             
C 29.52 13.95 28.52                                                             
C 29.52 13.95 51.34                                                             
C 29.52 13.95 74.16                                                             
C 29.52 13.95 96.97                                                             
C  2.68  0.00 17.11                                                             
C  2.68  0.00 39.93                                                             
C  2.68  0.00 62.75                                                             
C  2.68  0.00 85.56                                                             
C  2.68  0.00 108.38                                                            
C  2.68  4.65 17.11                                                             
C  2.68  4.65 39.93                                                             
C  2.68  4.65 62.75                                                             
C  2.68  4.65 85.56                                                             
C  2.68  4.65 108.38                                                            
C  6.71  2.32 17.11                                                             
C  6.71  2.32 39.93                                                             
C  6.71  2.32 62.75                                                             
C  6.71  2.32 85.56                                                             
C  6.71  2.32 108.38                                                            
C 10.74  0.00 17.11                                                             
C 10.74  0.00 39.93                                                             
C 10.74  0.00 62.75                                                             
C 10.74  0.00 85.56                                                             
C 10.74  0.00 108.38                                                            
C  2.68  9.30 17.11                                                             
C  2.68  9.30 39.93                                                             
C  2.68  9.30 62.75                                                             
C  2.68  9.30 85.56                                                             
C  2.68  9.30 108.38                                                            
C  6.71  6.97 17.11                                                             
C  6.71  6.97 39.93                                                             
C  6.71  6.97 62.75                                                             
C  6.71  6.97 85.56                                                             
C  6.71  6.97 108.38                                                            
C 10.74  4.65 17.11                                                             
C 10.74  4.65 39.93                                                             
C 10.74  4.65 62.75                                                             
C 10.74  4.65 85.56                                                             
C 10.74  4.65 108.38                                                            
C 14.76  2.32 17.11                                                             
C 14.76  2.32 39.93                                                             
C 14.76  2.32 62.75                                                             
C 14.76  2.32 85.56                                                             
C 14.76  2.32 108.38                                                            
C 18.79  0.00 17.11                                                             
C 18.79  0.00 39.93                                                             
C 18.79  0.00 62.75                                                             
C 18.79  0.00 85.56                                                             
C 18.79  0.00 108.38                                                            
C  2.68 13.95 17.11                                                             
C  2.68 13.95 39.93                                                             
C  2.68 13.95 62.75                                                             
C  2.68 13.95 85.56                                                             
C  2.68 13.95 108.38                                                            
C  6.71 11.62 17.11                                                             
C  6.71 11.62 39.93                                                             
C  6.71 11.62 62.75                                                             
C  6.71 11.62 85.56                                                             
C  6.71 11.62 108.38                                                            
C 10.74  9.30 17.11                                                             
C 10.74  9.30 39.93                                                             
C 10.74  9.30 62.75                                                             
C 10.74  9.30 85.56                                                             
C 10.74  9.30 108.38                                                            
C 14.76  6.97 17.11                                                             
C 14.76  6.97 39.93                                                             
C 14.76  6.97 62.75                                                             
C 14.76  6.97 85.56                                                             
C 14.76  6.97 108.38                                                            
C 18.79  4.65 17.11                                                             
C 18.79  4.65 39.93                                                             
C 18.79  4.65 62.75                                                             
C 18.79  4.65 85.56                                                             
C 18.79  4.65 108.38                                                            
C 22.81  2.32 17.11                                                             
C 22.81  2.32 39.93                                                             
C 22.81  2.32 62.75                                                             
C 22.81  2.32 85.56                                                             
C 22.81  2.32 108.38                                                            
C 26.84  0.00 17.11                                                             
C 26.84  0.00 39.93                                                             
C 26.84  0.00 62.75                                                             
C 26.84  0.00 85.56                                                             
C 26.84  0.00 108.38                                                            
C  6.71 16.27 17.11                                                             
C  6.71 16.27 39.93                                                             
C  6.71 16.27 62.75                                                             
C  6.71 16.27 85.56                                                             
C  6.71 16.27 108.38                                                            
C 10.74 13.95 17.11                                                             
C 10.74 13.95 39.93                                                             
C 10.74 13.95 62.75                                                             
C 10.74 13.95 85.56                                                             
C 10.74 13.95 108.38                                                            
C 14.76 11.62 17.11                                                             
C 14.76 11.62 39.93                                                             
C 14.76 11.62 62.75                                                             
C 14.76 11.62 85.56                                                             
C 14.76 11.62 108.38                                                            
C 18.79  9.30 17.11                                                             
C 18.79  9.30 39.93                                                             
C 18.79  9.30 62.75                                                             
C 18.79  9.30 85.56                                                             
C 18.79  9.30 108.38                                                            
C 22.81  6.97 17.11                                                             
C 22.81  6.97 39.93                                                             
C 22.81  6.97 62.75                                                             
C 22.81  6.97 85.56                                                             
C 22.81  6.97 108.38                                                            
C 26.84  4.65 17.11                                                             
C 26.84  4.65 39.93                                                             
C 26.84  4.65 62.75                                                             
C 26.84  4.65 85.56                                                             
C 26.84  4.65 108.38                                                            
C 30.86  2.32 17.11                                                             
C 30.86  2.32 39.93                                                             
C 30.86  2.32 62.75                                                             
C 30.86  2.32 85.56                                                             
C 30.86  2.32 108.38                                                            
C 14.76 16.27 17.11                                                             
C 14.76 16.27 39.93                                                             
C 14.76 16.27 62.75                                                             
C 14.76 16.27 85.56                                                             
C 14.76 16.27 108.38                                                            
C 18.79 13.95 17.11                                                             
C 18.79 13.95 39.93                                                             
C 18.79 13.95 62.75                                                             
C 18.79 13.95 85.56                                                             
C 18.79 13.95 108.38                                                            
C 22.81 11.62 17.11                                                             
C 22.81 11.62 39.93                                                             
C 22.81 11.62 62.75                                                             
C 22.81 11.62 85.56                                                             
C 22.81 11.62 108.38                                                            
C 26.84  9.30 17.11                                                             
C 26.84  9.30 39.93                                                             
C 26.84  9.30 62.75                                                             
C 26.84  9.30 85.56                                                             
C 26.84  9.30 108.38                                                            
C 30.86  6.97 17.11                                                             
C 30.86  6.97 39.93                                                             
C 30.86  6.97 62.75                                                             
C 30.86  6.97 85.56                                                             
C 30.86  6.97 108.38                                                            
C 22.81 16.27 17.11                                                             
C 22.81 16.27 39.93                                                             
C 22.81 16.27 62.75                                                             
C 22.81 16.27 85.56                                                             
C 22.81 16.27 108.38                                                            
C 26.84 13.95 17.11                                                             
C 26.84 13.95 39.93                                                             
C 26.84 13.95 62.75                                                             
C 26.84 13.95 85.56                                                             
C 26.84 13.95 108.38                                                            
C 30.86 11.62 17.11                                                             
C 30.86 11.62 39.93                                                             
C 30.86 11.62 62.75                                                             
C 30.86 11.62 85.56                                                             
C 30.86 11.62 108.38                                                            
C 30.86 16.27 17.11                                                             
C 30.86 16.27 39.93                                                             
C 30.86 16.27 62.75                                                             
C 30.86 16.27 85.56                                                             
C 30.86 16.27 108.38                                                            
%ENDBLOCK POSITIONS_ABS                                                         

--------------------------------------------------------------------------------
-------------------------------- END INPUT FILE --------------------------------
--------------------------------------------------------------------------------


 
<<<<<<<<<<<<<<<<<<<<<<<<<<<<<<<<< Full system >>>>>>>>>>>>>>>>>>>>>>>>>>>>>>>>>>
<<<<<<<<<<<<<<<<<<<<<<<<<<< PAW Dataset information >>>>>>>>>>>>>>>>>>>>>>>>>>>
File: ~/pp/paw/c_pbe_abinit.paw; rc = 1.25 bohr; shape type =  3; rshape = 1.25 bohr;
  Atomic number:  6;  ionic charge:  4.000000
    Partial Wave 1: l = 0
    Partial Wave 2: l = 0
    Partial Wave 3: l = 1
    Partial Wave 4: l = 1
  Core charge supplied for Nonlinear Core Corrections
<<<<<<<<<<<<<<<<<<<<<<<<<<<<<<<<<<<<<<< >>>>>>>>>>>>>>>>>>>>>>>>>>>>>>>>>>>>>>>

-------------------------- Atom counting information ---------------------------
Symbol    Natoms    Nngwfs    Nprojs
  C        640      2560      5120
.......   ......    ......    ......
Totals:    640      2560      5120
--------------------------------------------------------------------------------

=============================== PSINC grid sizes ===============================
                      Simulation cell:   63 x  35 x 225
                              FFT-box:   63 x  35 x 117
                                  PPD:    7 x   5 x   1
Grid space d1=  0.511269841270a0 (KE cutoff=  29.06054Eh = 790.77748eV)
Grid space d2=  0.531142857143a0 (KE cutoff=  26.92659Eh = 732.70972eV)
Grid space d3=  0.507066666667a0 (KE cutoff=  29.54431Eh = 803.94163eV)
================================================================================
  
WARNING in cell_grid_distribute:
Average of less than one 23-slab per node, so workload cannot be
equally balanced between nodes.

********************* Fourier parallelisation information **********************
       Coarse grid (whole simulation cell) dimensions:     63    35   225
          Real-space ('12') slabs/node (min max mean):      5     6     5
         Recip-space ('23') slabs/node (min max mean):      0     1     0
********************************************************************************

********************* Fourier parallelisation information **********************
       Double grid (whole simulation cell) dimensions:    126    70   450
          Real-space ('12') slabs/node (min max mean):     11    12    11
         Recip-space ('23') slabs/node (min max mean):      1     2     1
********************************************************************************

Atom SCF Calculation for C  : Z (AE atom) =   6 : Z (PS atom) =   4
Config String: 2s2 2p2
Orbitals (num,occ):  2     2.00 2.00
Orbitals   (num,l):  2        0    1
Real-space Grid (nr,dr,rmax): 1293    0.0069659443    9.0000000000
Spherical Bessel Basis (nsws,lmax,cutoff):   37    2  161.4736382572
Confining potential (l,width,scale):  0    3.0000000000  100.0000000000
Confining potential (l,width,scale):  1    3.0000000000  100.0000000000
  1         -5.4129360987   -1.2444937266    4.5135257941   -1.5420271367
  2         -5.3444202281   -1.3377187790    4.4131101426   -1.5071921700
  3         -5.3525226456   -1.3566567794    4.3924752240   -1.5004938544
  4         -5.3561013121   -1.3623552809    4.3862114699   -1.4986199617
  5         -5.3580093800   -1.3653574582    4.3828991843   -1.4976654093
  6         -5.3590276761   -1.3669475005    4.3811409016   -1.4971696795
  7         -5.3595688314   -1.3677934914    4.3802040659   -1.4969088858
  8         -5.3598556216   -1.3682449178    4.3797036984   -1.4967706290
  9         -5.3600074081   -1.3684862338    4.3794360452   -1.4966970063
 10         -5.3600877081   -1.3686153812    4.3792927313   -1.4966576988
 11         -5.3601301919   -1.3686845537    4.3792159394   -1.4966366788
 12         -5.3601526758   -1.3687216261    4.3791747687   -1.4966254262
 13         -5.3601645804   -1.3687415049    4.3791526850   -1.4966193980
 14         -5.3601708871   -1.3687521691    4.3791408341   -1.4966161667
 15         -5.3601742301   -1.3687578926    4.3791344719   -1.4966144337
 16         -5.3601760032   -1.3687609656    4.3791310549   -1.4966135039
 17         -5.3601769442   -1.3687626162    4.3791292190   -1.4966130048
 18         -5.3601774440   -1.3687635032    4.3791282322   -1.4966127369
 19         -5.3601777096   -1.3687639799    4.3791277016   -1.4966125929
 20         -5.3601778508   -1.3687642363    4.3791274162   -1.4966125155
 21         -5.3601779259   -1.3687643743    4.3791272626   -1.4966124740
Atom SCF converged after  21 iterations to a total energy of     -5.36017793

Determining parallel strategy ...
... using space-filling curve
... NGWF load balancing: max     64;  min     64;  average     64
... Projector load balancing: max    128;  min    128;  average    128
... done
Calculating Ewald energy ...
              Ewald: real-space energy =   10198.412740
        Ewald: reciprocal-space energy =      36.875900
         Ewald: (sum_charge)**2 Energy =    9301.451204
         Ewald: (sum_charge**2) Energy =     735.344284
                          Ewald Energy =     198.493152
Basis initialisation ...... NGWF spheres initialised
... Projector spheres initialised
... NGWF tight boxes initialised
... Projector tight boxes initialised
... Tight-boxes gathered
... NGWF basis size (local,global):     692372  27887488
... PAW projector initialisation
... done

============================= Charge Augmentation ==============================
                           Aug box size:   11 x  11 x  11
================================================================================

========================== Sparse matrix information ===========================
                        Overlap matrix filling:  24.84%
                        Density kernel filling: 100.00%
              NGWF-Proj overlap matrix filling:   5.47%
                    Aug Overlap matrix filling:  25.00%
                    Hamiltonian matrix filling:  25.00%
                  NGWF diagonal matrix filling:   0.16%
                             KS matrix filling: 100.00% 
                           KSKS matrix filling: 100.00% 
================================================================================

Sparse matrix initialisation ... done
NGWF initialisation ...... done
============ Calculation of NGWF S^-1 using Hotelling algorithm ================ 
         Iteration  |  Frobenius norm and Maximum abs value    (of I-S*S_n^-1)   
               1       0.48714233E+02     0.97124802E+00
               2       0.47276749E+02     0.94459052E+00
               3       0.45217418E+02     0.89671490E+00
               4       0.42655739E+02     0.81812251E+00
               5       0.39646864E+02     0.71478810E+00
               6       0.36271758E+02     0.66322720E+00
               7       0.32916436E+02     0.61955980E+00
               8       0.29697429E+02     0.58205276E+00
               9       0.26052209E+02     0.53525988E+00
              10       0.21320507E+02     0.45865462E+00
              11       0.15224835E+02     0.34034983E+00
              12       0.85190572E+01     0.19332663E+00
              13       0.30978224E+01     0.67672605E-01
              14       0.49001044E+00     0.97128450E-02
              15       0.14563746E-01     0.24765973E-03
              16       0.17012623E-04     0.20996049E-06
              17       0.35606258E-10     0.26512126E-12
================================================================================
Calculating core density ...
================================= Core Density =================================
               Core den box size:   21 x  21 x  21
================================================================================
 ... done
Up spin density kernel initialisation ...... done

Writing density kernel to file "6.03712_GO_manual_4x64graphite.dkn" ... done

>>> Optimising kernel for current NGWFs:

--------------------------- Ensemble-DFT optimisation --------------------------
Running ScaLAPACK on   40 processor(s).

--------------------------------------------------------------------------------
  Iter                              Commutator    Free_energy(A=E-TS)     DeltaA
#    0                          0.000022776836   -3613.18751279940352  -3.61E+03

Step                       =       0.381966011250
Energy                     =   -3613.187489079268
Entropy (-TS)              =      -0.000023720134
Free energy (A=E-TS)       =   -3613.187512799404
Est. 0K Energy 0.5*(E+A)   =   -3613.187500939336
Residual Non-orthogonality =       0.000000000000
Residual N_electrons       =      -0.000000000002

Spin          Integrated_Ne            Fermi_level     Delta_Fermi_level
   1      2559.999999999666        -0.005626917123             -5.63E-03

                           Spin 1          
     Orb      H-eigenvalues     Occupancies
       1 |    -0.7285468987    1.0000000000 | 
                          ------
    1276 |    -0.0426112880    0.9999915280 | 
    1277 |    -0.0426109423    0.9999915271 | 
    1278 |    -0.0426107445    0.9999915266 | 
    1279 |    -0.0426045051    0.9999915099 | 
    1280 |    -0.0426016575    0.9999915022 | 
                 - Gap at zero temperature -
    1281 |     0.0314841391    0.0000081397 | 
    1282 |     0.0314850640    0.0000081374 | 
    1283 |     0.0314856532    0.0000081358 | 
    1284 |     0.0314922069    0.0000081190 | 
    1285 |     0.0314951339    0.0000081115 | 
                          ------
    2560 |     0.8348624721    0.0000000000 | 

                       |  Abs_value |  Threshold | Converged
     Delta_Free_energy |   3.61E+03 |   1.00E-06 |        No
     Delta_Energy      |   3.61E+03 |   1.00E-04 |        No
     Delta_Entropy     |   2.37E-05 |   1.00E-04 |       Yes
     Commutator        |   2.28E-05 |   1.00E-05 |        No
     Delta_Fermi_level |   5.63E-03 |   1.00E-03 |        No

  Line search of the free energy minimum:
  Step_type        Step             Free_energy   Predicted_free_energy
.   Initial    0.000000    -3613.18751279940352
.    Trial1    0.381966    -3613.18815705363431
.    Trial2    0.618034    -3613.18822571893770
. Quadratic    0.564396    -3613.18823235945320    -3613.18823221669663

--------------------------------------------------------------------------------
  Iter                              Commutator    Free_energy(A=E-TS)     DeltaA
#    1                          0.000012299409   -3613.18823235945320  -7.20E-04

Step                       =       0.564395684550
Energy                     =   -3613.188206795517
Entropy (-TS)              =      -0.000025563936
Free energy (A=E-TS)       =   -3613.188232359453
Est. 0K Energy 0.5*(E+A)   =   -3613.188219577485
Residual Non-orthogonality =       0.000000000000
Residual N_electrons       =      -0.000000000001

Spin          Integrated_Ne            Fermi_level     Delta_Fermi_level
   1      2559.999999999939        -0.015607570291             -9.98E-03

                           Spin 1          
     Orb      H-eigenvalues     Occupancies
       1 |    -0.7391902334    1.0000000000 | 
                          ------
    1276 |    -0.0523990147    0.9999909959 | 
    1277 |    -0.0523967928    0.9999909896 | 
    1278 |    -0.0523960111    0.9999909873 | 
    1279 |    -0.0523952182    0.9999909851 | 
    1280 |    -0.0523948528    0.9999909840 | 
                 - Gap at zero temperature -
    1281 |     0.0211830501    0.0000090065 | 
    1282 |     0.0211856007    0.0000089992 | 
    1283 |     0.0211868786    0.0000089956 | 
    1284 |     0.0211876544    0.0000089934 | 
    1285 |     0.0211888068    0.0000089901 | 
                          ------
    2560 |     0.8223252148    0.0000000000 | 

                       |  Abs_value |  Threshold | Converged
     Delta_Free_energy |   7.20E-04 |   1.00E-06 |        No
     Delta_Energy      |   7.18E-04 |   1.00E-04 |        No
     Delta_Entropy     |   1.84E-06 |   1.00E-04 |       Yes
     Commutator        |   1.23E-05 |   1.00E-05 |        No
     Delta_Fermi_level |   9.98E-03 |   1.00E-03 |        No

  Line search of the free energy minimum:
  Step_type        Step             Free_energy   Predicted_free_energy
.   Initial    0.000000    -3613.18823235945320
.    Trial1    0.564396    -3613.18831300456532
.    Trial2    0.730782    -3613.18813953277686
. Quadratic    0.326239    -3613.18840467475047    -3613.18840501334853

--------------------------------------------------------------------------------
  Iter                              Commutator    Free_energy(A=E-TS)     DeltaA
#    2                          0.000006324785   -3613.18840467475047  -1.72E-04

Step                       =       0.326239141154
Energy                     =   -3613.188378625396
Entropy (-TS)              =      -0.000026049327
Free energy (A=E-TS)       =   -3613.188404674750
Est. 0K Energy 0.5*(E+A)   =   -3613.188391650073
Residual Non-orthogonality =       0.000000000000
Residual N_electrons       =      -0.000000000027

Spin          Integrated_Ne            Fermi_level     Delta_Fermi_level
   1      2559.999999998503        -0.018124090987             -2.52E-03

                           Spin 1          
     Orb      H-eigenvalues     Occupancies
       1 |    -0.7418790720    1.0000000000 | 
                          ------
    1276 |    -0.0548274411    0.9999907419 | 
    1277 |    -0.0548248181    0.9999907342 | 
    1278 |    -0.0548240013    0.9999907318 | 
    1279 |    -0.0548238775    0.9999907315 | 
    1280 |    -0.0548232964    0.9999907298 | 
                 - Gap at zero temperature -
    1281 |     0.0186263744    0.0000091214 | 
    1282 |     0.0186293298    0.0000091129 | 
    1283 |     0.0186304380    0.0000091097 | 
    1284 |     0.0186308692    0.0000091084 | 
    1285 |     0.0186320734    0.0000091050 | 
                          ------
    2560 |     0.8191539770    0.0000000000 | 

                       |  Abs_value |  Threshold | Converged
     Delta_Free_energy |   1.72E-04 |   1.00E-06 |        No
     Delta_Energy      |   1.72E-04 |   1.00E-04 |        No
     Delta_Entropy     |   4.85E-07 |   1.00E-04 |       Yes
     Commutator        |   6.32E-06 |   1.00E-05 |       Yes
     Delta_Fermi_level |   2.52E-03 |   1.00E-03 |        No

  Line search of the free energy minimum:
  Step_type        Step             Free_energy   Predicted_free_energy
.   Initial    0.000000    -3613.18840467475047
.    Trial1    0.326239    -3613.18845118286981
.    Trial2    0.583593    -3613.18844989989248
. Quadratic    0.445057    -3613.18845475947137    -3613.18845475207490

--------------------------------------------------------------------------------
  Iter                              Commutator    Free_energy(A=E-TS)     DeltaA
#    3                          0.000003969074   -3613.18845475947137  -5.01E-05

Step                       =       0.445056671403
Energy                     =   -3613.188428263719
Entropy (-TS)              =      -0.000026495754
Free energy (A=E-TS)       =   -3613.188454759471
Est. 0K Energy 0.5*(E+A)   =   -3613.188441511596
Residual Non-orthogonality =       0.000000000000
Residual N_electrons       =       0.000000000002

Spin          Integrated_Ne            Fermi_level     Delta_Fermi_level
   1      2560.000000000104        -0.020441749796             -2.32E-03

                           Spin 1          
     Orb      H-eigenvalues     Occupancies
       1 |    -0.7443458478    1.0000000000 | 
                          ------
    1276 |    -0.0570844038    0.9999905627 | 
    1277 |    -0.0570814350    0.9999905539 | 
    1278 |    -0.0570811963    0.9999905532 | 
    1279 |    -0.0570804949    0.9999905511 | 
    1280 |    -0.0570800881    0.9999905499 | 
                 - Gap at zero temperature -
    1281 |     0.0162530937    0.0000092830 | 
    1282 |     0.0162564001    0.0000092733 | 
    1283 |     0.0162569664    0.0000092717 | 
    1284 |     0.0162578812    0.0000092690 | 
    1285 |     0.0162588538    0.0000092661 | 
                          ------
    2560 |     0.8162475179    0.0000000000 | 

                       |  Abs_value |  Threshold | Converged
     Delta_Free_energy |   5.01E-05 |   1.00E-06 |        No
     Delta_Energy      |   4.96E-05 |   1.00E-04 |       Yes
     Delta_Entropy     |   4.46E-07 |   1.00E-04 |       Yes
     Commutator        |   3.97E-06 |   1.00E-05 |       Yes
     Delta_Fermi_level |   2.32E-03 |   1.00E-03 |        No

  Line search of the free energy minimum:
  Step_type        Step             Free_energy   Predicted_free_energy
.   Initial    0.000000    -3613.18845475947137
.    Trial1    0.445057    -3613.18847073103370
.    Trial2    0.657026    -3613.18845520118839
. Quadratic    0.330537    -3613.18847290464146    -3613.18847290979420

--------------------------------------------------------------------------------
  Iter                              Commutator    Free_energy(A=E-TS)     DeltaA
#    4                          0.000002299424   -3613.18847290464146  -1.81E-05

Step                       =       0.330536500240
Energy                     =   -3613.188446223414
Entropy (-TS)              =      -0.000026681270
Free energy (A=E-TS)       =   -3613.188472904641
Est. 0K Energy 0.5*(E+A)   =   -3613.188459564028
[...]
 C   275 -- C   555       -0.10      5.37000
 C   274 -- C   554       -0.10      5.37000
 C   273 -- C   553       -0.10      5.37000
 C   272 -- C   552       -0.10      5.37000
 C   271 -- C   551       -0.10      5.37000
 C   270 -- C   550       -0.10      5.37000
 C   269 -- C   549       -0.10      5.37000
 C   268 -- C   548       -0.10      5.37000
 C   267 -- C   547       -0.10      5.37000
 C   266 -- C   546       -0.10      5.37000
 C   130 -- C   465       -0.10      5.37000
 C   129 -- C   464       -0.10      5.37000
 C   128 -- C   463       -0.10      5.37000
 C   127 -- C   462       -0.10      5.37000
 C   126 -- C   461       -0.10      5.37000
 C   240 -- C   525       -0.10      5.37000
 C   239 -- C   524       -0.10      5.37000
 C   238 -- C   523       -0.10      5.37000
 C   237 -- C   522       -0.10      5.37000
 C   236 -- C   521       -0.10      5.37000
 C    23 -- C   478       -0.10      5.37202
 C    49 -- C   469       -0.10      5.37202
 C    48 -- C   468       -0.10      5.37202
 C    47 -- C   467       -0.10      5.37202
 C    22 -- C   477       -0.10      5.37202
 C    46 -- C   466       -0.10      5.37202
 C    21 -- C   476       -0.10      5.37202
 C    25 -- C   480       -0.10      5.37202
 C    24 -- C   479       -0.10      5.37202
 C    50 -- C   470       -0.10      5.37202
 C    24 -- C   449       -0.10      5.37202
 C     6 -- C   416       -0.10      5.37202
 C    23 -- C   448       -0.10      5.37202
 C    22 -- C   447       -0.10      5.37202
 C    10 -- C   470       -0.10      5.37202
 C     5 -- C   450       -0.10      5.37202
 C    21 -- C   446       -0.10      5.37202
 C    10 -- C   420       -0.10      5.37202
 C     9 -- C   469       -0.10      5.37202
 C     9 -- C   419       -0.10      5.37202
 C     8 -- C   468       -0.10      5.37202
 C     4 -- C   449       -0.10      5.37202
 C     8 -- C   418       -0.10      5.37202
 C     2 -- C   447       -0.10      5.37202
 C     7 -- C   467       -0.10      5.37202
 C     7 -- C   417       -0.10      5.37202
 C     1 -- C   446       -0.10      5.37202
 C     6 -- C   466       -0.10      5.37202
 C    25 -- C   450       -0.10      5.37202
 C     3 -- C   448       -0.10      5.37202
 C   285 -- C   580       -0.10      5.37202
 C   284 -- C   579       -0.10      5.37202
 C   283 -- C   578       -0.10      5.37202
 C   282 -- C   577       -0.10      5.37202
 C   281 -- C   576       -0.10      5.37202
 C   260 -- C   605       -0.10      5.37202
 C   259 -- C   604       -0.10      5.37202
 C   258 -- C   603       -0.10      5.37202
 C   257 -- C   602       -0.10      5.37202
 C   256 -- C   601       -0.10      5.37202
 C   219 -- C   569       -0.10      5.37202
 C   218 -- C   568       -0.10      5.37202
 C   217 -- C   567       -0.10      5.37202
 C   216 -- C   566       -0.10      5.37202
 C    11 -- C   331       -0.10      5.37202
 C   205 -- C   550       -0.10      5.37202
 C   204 -- C   549       -0.10      5.37202
 C   203 -- C   548       -0.10      5.37202
 C   202 -- C   547       -0.10      5.37202
 C   201 -- C   546       -0.10      5.37202
 C    15 -- C   335       -0.10      5.37202
 C    30 -- C   355       -0.10      5.37202
 C    30 -- C   325       -0.10      5.37202
 C    14 -- C   334       -0.10      5.37202
 C    29 -- C   354       -0.10      5.37202
 C    29 -- C   324       -0.10      5.37202
 C   260 -- C   550       -0.10      5.37202
 C   259 -- C   549       -0.10      5.37202
 C    28 -- C   353       -0.10      5.37202
 C   258 -- C   548       -0.10      5.37202
 C   257 -- C   547       -0.10      5.37202
 C   256 -- C   546       -0.10      5.37202
 C    28 -- C   323       -0.10      5.37202
 C    27 -- C   352       -0.10      5.37202
 C    13 -- C   333       -0.10      5.37202
 C   250 -- C   540       -0.10      5.37202
 C   249 -- C   539       -0.10      5.37202
 C   248 -- C   538       -0.10      5.37202
 C   247 -- C   537       -0.10      5.37202
 C   246 -- C   536       -0.10      5.37202
 C    27 -- C   322       -0.10      5.37202
 C    26 -- C   351       -0.10      5.37202
 C    55 -- C   335       -0.10      5.37202
 C    26 -- C   321       -0.10      5.37202
 C    54 -- C   334       -0.10      5.37202
 C    12 -- C   332       -0.10      5.37202
 C    53 -- C   333       -0.10      5.37202
 C   230 -- C   580       -0.10      5.37202
 C   230 -- C   525       -0.10      5.37202
 C   229 -- C   579       -0.10      5.37202
 C   229 -- C   524       -0.10      5.37202
 C   228 -- C   578       -0.10      5.37202
 C    52 -- C   332       -0.10      5.37202
 C   228 -- C   523       -0.10      5.37202
 C   227 -- C   577       -0.10      5.37202
 C   227 -- C   522       -0.10      5.37202
 C   226 -- C   576       -0.10      5.37202
 C   226 -- C   521       -0.10      5.37202
 C    51 -- C   331       -0.10      5.37202
 C   220 -- C   570       -0.10      5.37202
 C   220 -- C   515       -0.10      5.37202
 C   219 -- C   514       -0.10      5.37202
 C   218 -- C   513       -0.10      5.37202
 C   217 -- C   512       -0.10      5.37202
 C   216 -- C   511       -0.10      5.37202
 C    95 -- C   425       -0.10      5.37202
 C    95 -- C   365       -0.10      5.37202
 C    94 -- C   424       -0.10      5.37202
 C    94 -- C   364       -0.10      5.37202
 C    93 -- C   423       -0.10      5.37202
 C   195 -- C   540       -0.10      5.37202
 C   195 -- C   500       -0.10      5.37202
 C    93 -- C   363       -0.10      5.37202
 C   194 -- C   539       -0.10      5.37202
 C    92 -- C   422       -0.10      5.37202
 C   194 -- C   499       -0.10      5.37202
 C   193 -- C   538       -0.10      5.37202
 C   193 -- C   498       -0.10      5.37202
 C    92 -- C   362       -0.10      5.37202
 C   192 -- C   537       -0.10      5.37202
 C    91 -- C   421       -0.10      5.37202
 C   192 -- C   497       -0.10      5.37202
 C   191 -- C   536       -0.10      5.37202
 C   191 -- C   496       -0.10      5.37202
 C    91 -- C   361       -0.10      5.37202
 C    85 -- C   355       -0.10      5.37202
 C   180 -- C   515       -0.10      5.37202
 C    40 -- C   365       -0.10      5.37202
 C    84 -- C   354       -0.10      5.37202
 C   179 -- C   514       -0.10      5.37202
 C    83 -- C   353       -0.10      5.37202
 C   178 -- C   513       -0.10      5.37202
 C   177 -- C   512       -0.10      5.37202
 C    82 -- C   352       -0.10      5.37202
 C    39 -- C   364       -0.10      5.37202
 C   176 -- C   511       -0.10      5.37202
 C    81 -- C   351       -0.10      5.37202
 C    38 -- C   363       -0.10      5.37202
 C    37 -- C   362       -0.10      5.37202
 C    36 -- C   361       -0.10      5.37202
 C    65 -- C   395       -0.10      5.37202
 C    65 -- C   345       -0.10      5.37202
 C    64 -- C   394       -0.10      5.37202
 C    64 -- C   344       -0.10      5.37202
 C    63 -- C   393       -0.10      5.37202
 C    63 -- C   343       -0.10      5.37202
 C    62 -- C   392       -0.10      5.37202
 C    62 -- C   342       -0.10      5.37202
 C    61 -- C   391       -0.10      5.37202
 C    61 -- C   341       -0.10      5.37202
 C   120 -- C   395       -0.10      5.37202
 C    55 -- C   385       -0.10      5.37202
 C   119 -- C   394       -0.10      5.37202
 C   118 -- C   393       -0.10      5.37202
 C   117 -- C   392       -0.10      5.37202
 C    54 -- C   384       -0.10      5.37202
 C   116 -- C   391       -0.10      5.37202
 C    53 -- C   383       -0.10      5.37202
 C    52 -- C   382       -0.10      5.37202
 C    51 -- C   381       -0.10      5.37202
 C   150 -- C   440       -0.10      5.37202
 C   149 -- C   439       -0.10      5.37202
 C   148 -- C   438       -0.10      5.37202
 C   147 -- C   437       -0.10      5.37202
 C   146 -- C   436       -0.10      5.37202
 C   135 -- C   460       -0.10      5.37202
 C   134 -- C   459       -0.10      5.37202
 C   133 -- C   458       -0.10      5.37202
 C   132 -- C   457       -0.10      5.37202
 C   131 -- C   456       -0.10      5.37202
 C   106 -- C   436       -0.10      5.37202
 C   106 -- C   376       -0.10      5.37202
 C    80 -- C   410       -0.10      5.37202
 C    79 -- C   409       -0.10      5.37202
 C    78 -- C   408       -0.10      5.37202
 C    77 -- C   407       -0.10      5.37202
 C    76 -- C   406       -0.10      5.37202
 C   135 -- C   410       -0.10      5.37202
 C   134 -- C   409       -0.10      5.37202
 C   133 -- C   408       -0.10      5.37202
 C   132 -- C   407       -0.10      5.37202
 C   131 -- C   406       -0.10      5.37202
 C   110 -- C   440       -0.10      5.37202
 C   110 -- C   380       -0.10      5.37202
 C   109 -- C   439       -0.10      5.37202
 C   109 -- C   379       -0.10      5.37202
 C   108 -- C   438       -0.10      5.37202
 C   108 -- C   378       -0.10      5.37202
 C   107 -- C   437       -0.10      5.37202
 C   107 -- C   377       -0.10      5.37202
 C   215 -- C   635       -0.10      5.38000
 C   214 -- C   634       -0.10      5.38000
 C   213 -- C   633       -0.10      5.38000
 C   212 -- C   632       -0.10      5.38000
 C   211 -- C   631       -0.10      5.38000
 C   190 -- C   620       -0.10      5.38000
 C   189 -- C   619       -0.10      5.38000
 C   188 -- C   618       -0.10      5.38000
 C   187 -- C   617       -0.10      5.38000
 C   186 -- C   616       -0.10      5.38000
 C   175 -- C   595       -0.10      5.38000
 C   174 -- C   594       -0.10      5.38000
 C   173 -- C   593       -0.10      5.38000
 C   172 -- C   592       -0.10      5.38000
 C   171 -- C   591       -0.10      5.38000
 C   245 -- C   640       -0.10      5.38000
 C   244 -- C   639       -0.10      5.38000
 C   243 -- C   638       -0.10      5.38000
 C   242 -- C   637       -0.10      5.38000
 C   241 -- C   636       -0.10      5.38000
==================================================


=================== Orbital energy and occupancy information ===================

      Total number of orbitals:    2560
        Occupancy sum (kernel):    1280.000000000
   Occupancy sum (eigenvalues):    1280.000000000
                 HOMO-LUMO gap:       0.072423092 Eh
                 Mid-gap level:       0.073285543 Eh

                        Orbital | Energy (Eh) | Occupancy
                            1    -0.641191350   1.0000000
                        .......   ...........   .........
                         1271     0.036688469   0.9999903
                         1272     0.036696452   0.9999903
                         1273     0.036698775   0.9999903
                         1274     0.036710644   0.9999903
                         1275     0.036713062   0.9999903
                         1276     0.037050602   0.9999892
                         1277     0.037052681   0.9999892
                         1278     0.037065246   0.9999891
                         1279     0.037065874   0.9999891
                         1280     0.037073998   0.9999891
                        ....... -- gap at 0K -- .........
                         1281     0.109497089   0.0000106
                         1282     0.109497231   0.0000106
                         1283     0.109497676   0.0000106
                         1284     0.109500895   0.0000106
                         1285     0.109500909   0.0000106
                         1286     0.109740247   0.0000099
                         1287     0.109740381   0.0000099
                         1288     0.109740888   0.0000099
                         1289     0.109744063   0.0000098
                         1290     0.109744079   0.0000098
                        .......   ...........   .........
                         2560     0.977614391   0.0000000

================================================================================

===================== Writing canonical molecular orbitals =====================
| Orbital  Energy (eV)  Norm     |
| HOMO      1.00883481  1.000000 | Writing "6.03712_GO_manual_4x64graphite_HOMO.cube" ... done
Writing "6.03712_GO_manual_4x64graphite_HOMO.dx" ... done
| LUMO      2.97956741  1.000000 | Writing "6.03712_GO_manual_4x64graphite_LUMO.cube" ... done
Writing "6.03712_GO_manual_4x64graphite_LUMO.dx" ... done
================================================================================
 
===================== Density of States (DOS) calculation ======================
Writing "6.03712_GO_manual_4x64graphite_DOS.txt" ...  done
================================================================================
 
Writing bands to file "6.03712_GO_manual_4x64graphite.val_bands" ... done
 
================ Projected Density of States (pDOS) calculation ================
 
Constructing AM resolved functions  ...... done
Writing NGWF plot files in formats: CUBE DX ...  done
 
Performing overlap integrals ...  done
 
Computing pDOS weights ...  done
 
All bands spilling parameter =   2.55 %
Occupancy-weighted spilling parameter =   1.00 %
 
 => Outputting data for OptaDOS <=
 
Writing pDOS weights to file "6.03712_GO_manual_4x64graphite.val_pdos_bin" ... done
 
Writing band gradients to file "6.03712_GO_manual_4x64graphite.val_dome_bin" ... done
 
Writing Castep output cell file to "6.03712_GO_manual_4x64graphite-out.cell" ... done
 
 => Computing Gaussian smeared pDOS <= 
Writing "6.03712_GO_manual_4x64graphite_PDOS.txt" ...  done
 
 => Computing Occupancy-weighted Gaussian smeared pDOS <= 
Writing "6.03712_GO_manual_4x64graphite_occ_PDOS.txt" ...  done
  => Band centres: 
 S band centre of group 1:  -14.544787 eV
 P band centre of group 1:   -7.465736 eV
  Band centres done. <=
  => Integrated number of electrons in each AM band: 
 S num electrons of group 1:  571.412999
 P num electrons of group 1: 1962.862448
  Integrated number of electrons done. <=
================================================================================

------------------------------ TIMING INFORMATION ------------------------------
AVERAGE TIME:    2008.305s on     40 node(s)                                    
TOTAL TIME:      2008.306s on     40 node(s)                                    
================= AVERAGE TIMINGS FROM ALL NODES (CUMULATIVE) ==================
|| TAG                                    #calls    cpu time   %total  Gflops ||
|| work_imbalance                       :     1        0.00s   0.000%  ------ ||
|| paw_tcore_density                    :     1        0.01s   0.000%  ------ ||
|| paw_tcore_hartree_on_grid            :     1        0.01s   0.000%  ------ ||
|| paw_sphere_density_on_grid           :     1        0.01s   0.001%  ------ ||
|| sparse_set_to_garbage                :   123        0.02s   0.001%  ------ ||
|| paw_dij_hartree                      :   232        0.03s   0.001%  ------ ||
|| basis_extract_function_from_box      :  1408        0.06s   0.003%  ------ ||
|| pseudo_make_structure_factor         :     1        0.09s   0.004%  ------ ||
|| paw_species_calc_proj_prec_mat       :     1        0.12s   0.006%  ------ ||
|| density_init_guess_real              :     1        0.18s   0.009%  ------ ||
|| paw_dataset_init                     :     1        0.19s   0.009%  ------ ||
|| ngwfs_initialise_from_radial         :     2        0.67s   0.033%  ------ ||
|| sparse_init                          :     1        0.73s   0.036%  ------ ||
|| restart_kernel_write                 :    12        0.78s   0.039%  ------ ||
|| dense_normal_eigensolve              :     1        1.14s   0.057%  ------ ||
|| hartree_on_grid                      :   175        1.63s   0.081%  ------ ||
|| projectors_init_fftbox_recip         :   111        2.22s   0.111%  ------ ||
|| fourier_apply_box_pair               :  2080        3.45s   0.172% 559.240 ||
|| basis_copy_function_to_box           : 16832        3.60s   0.179%  ------ ||
|| augmentation_screen_dij              :   180        3.88s   0.193%  ------ ||
|| sparse_trace                         :  2090        5.98s   0.298%  ------ ||
|| sparse_embed_hotelling_invert_embed  :    21        6.03s   0.300%  ------ ||
|| sw_init                              :     1        6.73s   0.335%  ------ ||
|| ngwf_gradient_coeffs                 :    11        6.87s   0.342%  ------ ||
|| ewald_calculate_energy               :     1        8.60s   0.428%  ------ ||
|| cell_grid_deposit_box_real           : 22576       13.86s   0.690%  ------ ||
|| fourier_apply_cell_backward          :  5396       17.40s   0.866%  68.177 ||
|| fourier_apply_cell_forward           :  5047       17.50s   0.872%  63.390 ||
|| paw_dij_xc                           :   232       18.33s   0.913%  ------ ||
|| cell_grid_extract_box_real           :  7116       18.81s   0.937%  ------ ||
|| aug_nonlocal_mat                     :   221       22.35s   1.113%  ------ ||
|| projectors_func_ovlp_box             :    22       24.90s   1.240%  ------ ||
|| function_ops_brappd_ketppd           :    44       25.85s   1.287%  ------ ||
|| augmentation_density_on_grid         :   175       27.03s   1.346%  ------ ||
|| density_fftbox_deposit_to_cell       : 11200       27.98s   1.393%  ------ ||
|| hamiltonian_energy_components        :     3       35.09s   1.747%  ------ ||
|| integrals_kinetic                    :    21       43.53s   2.168%  ------ ||
|| eigenstates_pdos                     :     1       51.17s   2.548%  ------ ||
|| eigenstates_calculate                :     1       56.46s   2.811%  ------ ||
|| xc_energy_potential                  :   174       71.83s   3.577%  ------ ||
|| dense_eigensolve                     :   150       73.06s   3.638%  ------ ||
|| sparse_product                       :  2163       75.07s   3.738%  ------ ||
|| basis_dot_function_with_box          : 3.061M      82.47s   4.106%  ------ ||
|| nlxc_vdw_energy                      :   348       83.48s   4.157%  ------ ||
|| potential_apply_to_ngwf_batch        :   220       84.74s   4.219%  ------ ||
|| projectors_gradient_batch            :    44       89.27s   4.445%  ------ ||
|| restart_ngwfs_tightbox_output        :    10      111.22s   5.538%  ------ ||
|| integrals_locpot_mat_els_batch       :   220      113.40s   5.647%  ------ ||
|| properties_calculate                 :     1      114.93s   5.723%  ------ ||
|| projectors_grad_precond_batch        :    44      132.41s   6.593%  ------ ||
|| edft_diag_ngwf_ham                   :   149      164.84s   8.208%  ------ ||
|| fourier_apply_box                    : 53360      165.59s   8.245% 973.159 ||
|| integrals_locpot_dbl_grid            :    55      198.84s   9.901%  ------ ||
|| density_fftbox_interpolate_multiply  : 11200      216.45s  10.778%  ------ ||
|| basis_add_function_to_box            : 8.914M     232.40s  11.572%  ------ ||
|| ngwf_gradient_build_batch            :    44      255.03s  12.699%  ------ ||
|| density_batch_interp_deposit         :   700      269.93s  13.441%  ------ ||
|| density_batch_row_sums               :   700      317.66s  15.817%  ------ ||
|| edft_apply_smearing_operator         :   149      321.79s  16.023%  ------ ||
|| ngwf_gradient_batch                  :    44      356.02s  17.727%  ------ ||
|| ngwf_gradient_lnv                    :    11      372.62s  18.554%  ------ ||
|| density_on_dbl_grid                  :   175      598.77s  29.815%  ------ ||
|| hamiltonian_lhxc_calculate           :   170      685.74s  34.145%  ------ ||
|| edft_calculate                       :    11     1193.60s  59.433%  ------ ||
|| ngwf_cg_optimise                     :     1     1871.79s  93.203%  ------ ||
|| total_time                           :     1     2008.31s 100.000%  ------ ||
================================================================================
Overhead of generating timer report: 
- 0 ms averaging over threads,
- 5 ms ensuring consistency across MPI ranks,
- 0 ms printing in order.

Job completed: 09-03-2020 14:11 (-0000)

