 +---------------------------------------------------------------+
 |                                                               |
 |        ####### #     # ####### ####### ####### ######         |
 |        #     # ##    # #          #    #       #     #        |
 |        #     # # #   # #          #    #       #     #        |
 |        #     # #  #  # #####      #    #####   ######         |
 |        #     # #   # # #          #    #       #              |
 |        #     # #    ## #          #    #       #              |
 |        ####### #     # #######    #    ####### #              |
 |                                                               |
 |        Linear-Scaling Ab Initio Total Energy Program          |
 |                                                               |
 |          Release for academic collaborators of ODG            |
 |                                             Version 5.3.2.12  |
 |                                                               |
 +---------------------------------------------------------------+
 |                                                               |
 |  Authors:                                                     |
 |  Jacek Dziedzic, Peter D. Haynes, Nicholas D. M. Hine,        |
 |  Arash. A. Mostofi, Mike C. Payne and Chris-Kriton Skylaris   |
 |                                                               |
 |  Contributors:                                                |
 |  J. Aarons, L. Andrinopoulos, P. W. Avraam, R. A. Bell,       |
 |  A. Bhandari, G. A. Bramley, R. J. Charlton, S. J. Clark,     |
 |  R. J. Clements, G. C. Constantinescu, F. Corsetti,           |
 |  N. Corsini, O. Dieguez, S. M. M. Dubois, K. K. B. Duff,      |
 |  J. M. Escartin, A. Greco, H. Helal, Q. O. Hill, L. P. Lee,   |
 |  J.-H. Li, E. B. Linscott, G. Moynihan, D. D. O`Regan,        |
 |  O. K. Okan, M. J. S. Phipps, C. J. Pickard,                  |
 |  J. C. A. Prentice, M. I. J. Probert, L. E. Ratcliff,         |
 |  M. Robinson, A. Ruiz Serrano, J. S. Spencer, E. W. Tait,     |
 |  G. Teobaldi, D. Turban, V. Vitale, K. A. Wilkinson,          |
 |  C. Weber, J. C. Womack, N. Yeung and T. J. Zuehlsdorff       |
 |                                                               |
 |                                   Copyright (c) 2004-2020     |
 |                                                               |
 |  Please cite:                                                 |
 |  "Introducing ONETEP: Linear-scaling density functional       |
 |   simulations on parallel computers".                         |
 |   C.-K. Skylaris, P. D. Haynes, A. A. Mostofi, M. C. Payne.   |
 |   J. Chem. Phys. 122 084119 (2005).                           |
 |                                                               |
 |          in all publications arising from your use of ONETEP. |
 |                                                               |
 +---------------------------------------------------------------+
 |                                                               |
 |   ONETEP is based on developments described in the following  |
 |   publications:                                               |
 |                                                               |
 |  "Nonorthogonal generalized Wannier function pseudopotential  |
 |   plane-wave method".                                         |
 |   C.-K. Skylaris, A. A. Mostofi, P. D. Haynes, O. Dieguez,    |
 |   M. C. Payne.                                                |
 |   Phys. Rev. B 66 035119 (2002).                              |
 |                                                               |
 |  "Preconditioned iterative minimization for linear-scaling    |
 |   electronic structure calculations".                         |
 |   A. A. Mostofi, P. D. Haynes, C.-K. Skylaris, M. C. Payne.   |
 |   J. Chem. Phys. 119(17), pp.8842-8848 (2003).                |
 |                                                               |
 |  "Total-energy calculations on a real space grid with         |
 |   localized functions and a plane-wave basis".                |
 |   A. A. Mostofi, C.-K. Skylaris, P. D. Haynes, M. C. Payne.   |
 |   Comput. Phys. Commun. 147, pp.788-802 (2002).               |
 |                                                               |
 |  "Accurate kinetic energy evaluation in electronic structure  |
 |   calculations with localized functions on real space grids"  |
 |   C.-K. Skylaris, A. A. Mostofi, P. D. Haynes, C. J. Pickard, |
 |   M. C. Payne.                                                |
 |   Comput. Phys. Commun. 140, pp.315-322 (2001).               |
 |                                                               |
 |  "Accurate ionic forces and geometry optimization in linear-  |
 |   scaling density-functional theory with local orbitals"      |
 |   N. D. M. Hine, M. Robinson, P. D. Haynes, C.-K. Skylaris,   |
 |   M. C. Payne, and A. A. Mostofi.                             |
 |   Phys. Rev. B 83 195102 (2011).                              |
 |                                                               |
 +---------------------------------------------------------------+

Job started: 25-02-2020 15:24 (-0000)
 
Reading parameters from file "3.5418184_GO_manual_4x64graphite.dat" ...

WARNING: "cutoff_energy" not specified, but "psinc_spacing" specified.
         Using the latter to set the KE cutoff energy to  732.32021eV,
         thus *overriding* the default.

... done

If your calculation crashes here, before "Checking processes and threads..."
is displayed, then your stack size is insufficient.
If so, use "ulimit -s unlimited" at runtime.
You can disable this check with "check_stack_size F".

Checking processes and threads...
   Determining the default number of threads...
      No default threads set at compilation time: defaulting to 1.
      OpenMP library call suggests 4 threads.
      Hybrid MPI-OpenMP compilation detected.
      Number of MPI processes > 1.
      OMP_NUM_THREADS environment variable present and
      its value matches the one obtained from the OpenMP library call.
      Using this value as default.
      Default threads: 4
      Default applies to threads_max and threads_num_fftboxes.
      Settings in the input file override this default.
   ... done

   Running with 40 MPI processes.
   There are 10 MPI processes running on the same node as the root process.
   Each MPI process is using: 
               1 threads for simulation cell FFTs.
               1 threads for parallel FFT box operations.
               4 threads for loops over batched FFT box operations.
               4 threads in other parallel regions.
... done

Basic input checks...
Resetting ngwf_cg_rotate to TRUE for EDFT calculations
... done

Reading geometry and species blocks from file "3.5418184_GO_manual_4x64graphite.dat" ...
    
  PSINC grid spacing along a1 set to   0.511215680000a0 from input file.
  PSINC grid spacing along a2 set to   0.531284090000a0 from input file.
  PSINC grid spacing along a3 set to   0.507051550000a0 from input file.
  Number of PPD points along a3 set to 1.  This is 
  the default value, it may have been provided also in the input file.
... done
 Writing xyz coordinates to file "3.5418184_GO_manual_4x64graphite.xyz" ... done


--------------------------------------------------------------------------------
---------------------------------- INPUT FILE ----------------------------------
--------------------------------------------------------------------------------

task : singlepoint                                                              
do_properties : true                                                            
dx_format T                                                                     
edft T                                                                          
output_detail VERBOSE                                                           
write_xyz T                                                                     
xc_functional OPTB88                                                            
PSINC_SPACING 0.51121568 0.53128409 0.50705155                                  
paw T                                                                           
pdos_max_l = 2                                                                  
dos_smear  0.1 eV                                                               
popn_calculate T                                                                
PDOS_PSEUDOATOMIC T                                                             
PDOS_REDUCE_SWS F                                                               
PDOS_CONSTRUCT_BASIS F                                                          
PDOS_LOWDIN T                                                                   
PDOS_ORTH_ATOM_BLOCKS F                                                         
PDOS_LCAO_OPTIMIZE F                                                            
pdos_optados_output T                                                           
homo_plot 0                                                                     
lumo_plot 0                                                                     
homo_dens_plot -1                                                               
lumo_dens_plot -1                                                               
%BLOCK SPECIES                                                                  
C C 6 4 9.0                                                                     
%ENDBLOCK SPECIES                                                               
%BLOCK SPECIES_POT                                                              
C "~/pp/paw/c_pbe_abinit.paw"                                                   
%ENDBLOCK SPECIES_POT                                                           
%BLOCK SPECIES_ATOMIC_SET                                                       
C "SOLVE conf=2s2 2p2"                                                          
%ENDBLOCK SPECIES_ATOMIC_SET                                                    
%BLOCK LATTICE_CART                                                             
32.21  0.00  0.00                                                               
0.00 18.59  0.00                                                                
0.00  0.00 66.93                                                                
%ENDBLOCK LATTICE_CART                                                          
%BLOCK POSITIONS_ABS                                                            
C  0.00  0.00  3.35                                                             
C  0.00  0.00 16.73                                                             
C  0.00  0.00 30.12                                                             
C  0.00  0.00 43.51                                                             
C  0.00  0.00 56.89                                                             
C  0.00  4.65  3.35                                                             
C  0.00  4.65 16.73                                                             
C  0.00  4.65 30.12                                                             
C  0.00  4.65 43.51                                                             
C  0.00  4.65 56.89                                                             
C  4.03  2.32  3.35                                                             
C  4.03  2.32 16.73                                                             
C  4.03  2.32 30.12                                                             
C  4.03  2.32 43.51                                                             
C  4.03  2.32 56.89                                                             
C  8.05  0.00  3.35                                                             
C  8.05  0.00 16.73                                                             
C  8.05  0.00 30.12                                                             
C  8.05  0.00 43.51                                                             
C  8.05  0.00 56.89                                                             
C  0.00  9.30  3.35                                                             
C  0.00  9.30 16.73                                                             
C  0.00  9.30 30.12                                                             
C  0.00  9.30 43.51                                                             
C  0.00  9.30 56.89                                                             
C  4.03  6.97  3.35                                                             
C  4.03  6.97 16.73                                                             
C  4.03  6.97 30.12                                                             
C  4.03  6.97 43.51                                                             
C  4.03  6.97 56.89                                                             
C  8.05  4.65  3.35                                                             
C  8.05  4.65 16.73                                                             
C  8.05  4.65 30.12                                                             
C  8.05  4.65 43.51                                                             
C  8.05  4.65 56.89                                                             
C 12.08  2.32  3.35                                                             
C 12.08  2.32 16.73                                                             
C 12.08  2.32 30.12                                                             
C 12.08  2.32 43.51                                                             
C 12.08  2.32 56.89                                                             
C 16.10  0.00  3.35                                                             
C 16.10  0.00 16.73                                                             
C 16.10  0.00 30.12                                                             
C 16.10  0.00 43.51                                                             
C 16.10  0.00 56.89                                                             
C  0.00 13.95  3.35                                                             
C  0.00 13.95 16.73                                                             
C  0.00 13.95 30.12                                                             
C  0.00 13.95 43.51                                                             
C  0.00 13.95 56.89                                                             
C  4.03 11.62  3.35                                                             
C  4.03 11.62 16.73                                                             
C  4.03 11.62 30.12                                                             
C  4.03 11.62 43.51                                                             
C  4.03 11.62 56.89                                                             
C  8.05  9.30  3.35                                                             
C  8.05  9.30 16.73                                                             
C  8.05  9.30 30.12                                                             
C  8.05  9.30 43.51                                                             
C  8.05  9.30 56.89                                                             
C 12.08  6.97  3.35                                                             
C 12.08  6.97 16.73                                                             
C 12.08  6.97 30.12                                                             
C 12.08  6.97 43.51                                                             
C 12.08  6.97 56.89                                                             
C 16.10  4.65  3.35                                                             
C 16.10  4.65 16.73                                                             
C 16.10  4.65 30.12                                                             
C 16.10  4.65 43.51                                                             
C 16.10  4.65 56.89                                                             
C 20.13  2.32  3.35                                                             
C 20.13  2.32 16.73                                                             
C 20.13  2.32 30.12                                                             
C 20.13  2.32 43.51                                                             
C 20.13  2.32 56.89                                                             
C 24.16  0.00  3.35                                                             
C 24.16  0.00 16.73                                                             
C 24.16  0.00 30.12                                                             
C 24.16  0.00 43.51                                                             
C 24.16  0.00 56.89                                                             
C  4.03 16.27  3.35                                                             
C  4.03 16.27 16.73                                                             
C  4.03 16.27 30.12                                                             
C  4.03 16.27 43.51                                                             
C  4.03 16.27 56.89                                                             
C  8.05 13.95  3.35                                                             
C  8.05 13.95 16.73                                                             
C  8.05 13.95 30.12                                                             
C  8.05 13.95 43.51                                                             
C  8.05 13.95 56.89                                                             
C 12.08 11.62  3.35                                                             
C 12.08 11.62 16.73                                                             
C 12.08 11.62 30.12                                                             
C 12.08 11.62 43.51                                                             
C 12.08 11.62 56.89                                                             
C 16.10  9.30  3.35                                                             
C 16.10  9.30 16.73                                                             
C 16.10  9.30 30.12                                                             
C 16.10  9.30 43.51                                                             
C 16.10  9.30 56.89                                                             
C 20.13  6.97  3.35                                                             
C 20.13  6.97 16.73                                                             
C 20.13  6.97 30.12                                                             
C 20.13  6.97 43.51                                                             
C 20.13  6.97 56.89                                                             
C 24.16  4.65  3.35                                                             
C 24.16  4.65 16.73                                                             
C 24.16  4.65 30.12                                                             
C 24.16  4.65 43.51                                                             
C 24.16  4.65 56.89                                                             
C 28.18  2.32  3.35                                                             
C 28.18  2.32 16.73                                                             
C 28.18  2.32 30.12                                                             
C 28.18  2.32 43.51                                                             
C 28.18  2.32 56.89                                                             
C 12.08 16.27  3.35                                                             
C 12.08 16.27 16.73                                                             
C 12.08 16.27 30.12                                                             
C 12.08 16.27 43.51                                                             
C 12.08 16.27 56.89                                                             
C 16.10 13.95  3.35                                                             
C 16.10 13.95 16.73                                                             
C 16.10 13.95 30.12                                                             
C 16.10 13.95 43.51                                                             
C 16.10 13.95 56.89                                                             
C 20.13 11.62  3.35                                                             
C 20.13 11.62 16.73                                                             
C 20.13 11.62 30.12                                                             
C 20.13 11.62 43.51                                                             
C 20.13 11.62 56.89                                                             
C 24.16  9.30  3.35                                                             
C 24.16  9.30 16.73                                                             
C 24.16  9.30 30.12                                                             
C 24.16  9.30 43.51                                                             
C 24.16  9.30 56.89                                                             
C 28.18  6.97  3.35                                                             
C 28.18  6.97 16.73                                                             
C 28.18  6.97 30.12                                                             
C 28.18  6.97 43.51                                                             
C 28.18  6.97 56.89                                                             
C 20.13 16.27  3.35                                                             
C 20.13 16.27 16.73                                                             
C 20.13 16.27 30.12                                                             
C 20.13 16.27 43.51                                                             
C 20.13 16.27 56.89                                                             
C 24.16 13.95  3.35                                                             
C 24.16 13.95 16.73                                                             
C 24.16 13.95 30.12                                                             
C 24.16 13.95 43.51                                                             
C 24.16 13.95 56.89                                                             
C 28.18 11.62  3.35                                                             
C 28.18 11.62 16.73                                                             
C 28.18 11.62 30.12                                                             
C 28.18 11.62 43.51                                                             
C 28.18 11.62 56.89                                                             
C 28.18 16.27  3.35                                                             
C 28.18 16.27 16.73                                                             
C 28.18 16.27 30.12                                                             
C 28.18 16.27 43.51                                                             
C 28.18 16.27 56.89                                                             
C  0.00  0.00 10.04                                                             
C  0.00  0.00 23.43                                                             
C  0.00  0.00 36.81                                                             
C  0.00  0.00 50.20                                                             
C  0.00  0.00 63.58                                                             
C  0.00  4.65 10.04                                                             
C  0.00  4.65 23.43                                                             
C  0.00  4.65 36.81                                                             
C  0.00  4.65 50.20                                                             
C  0.00  4.65 63.58                                                             
C  4.03  2.32 10.04                                                             
C  4.03  2.32 23.43                                                             
C  4.03  2.32 36.81                                                             
C  4.03  2.32 50.20                                                             
C  4.03  2.32 63.58                                                             
C  8.05  0.00 10.04                                                             
C  8.05  0.00 23.43                                                             
C  8.05  0.00 36.81                                                             
C  8.05  0.00 50.20                                                             
C  8.05  0.00 63.58                                                             
C  0.00  9.30 10.04                                                             
C  0.00  9.30 23.43                                                             
C  0.00  9.30 36.81                                                             
C  0.00  9.30 50.20                                                             
C  0.00  9.30 63.58                                                             
C  4.03  6.97 10.04                                                             
C  4.03  6.97 23.43                                                             
C  4.03  6.97 36.81                                                             
C  4.03  6.97 50.20                                                             
C  4.03  6.97 63.58                                                             
C  8.05  4.65 10.04                                                             
C  8.05  4.65 23.43                                                             
C  8.05  4.65 36.81                                                             
C  8.05  4.65 50.20                                                             
C  8.05  4.65 63.58                                                             
C 12.08  2.32 10.04                                                             
C 12.08  2.32 23.43                                                             
C 12.08  2.32 36.81                                                             
C 12.08  2.32 50.20                                                             
C 12.08  2.32 63.58                                                             
C 16.10  0.00 10.04                                                             
C 16.10  0.00 23.43                                                             
C 16.10  0.00 36.81                                                             
C 16.10  0.00 50.20                                                             
C 16.10  0.00 63.58                                                             
C  0.00 13.95 10.04                                                             
C  0.00 13.95 23.43                                                             
C  0.00 13.95 36.81                                                             
C  0.00 13.95 50.20                                                             
C  0.00 13.95 63.58                                                             
C  4.03 11.62 10.04                                                             
C  4.03 11.62 23.43                                                             
C  4.03 11.62 36.81                                                             
C  4.03 11.62 50.20                                                             
C  4.03 11.62 63.58                                                             
C  8.05  9.30 10.04                                                             
C  8.05  9.30 23.43                                                             
C  8.05  9.30 36.81                                                             
C  8.05  9.30 50.20                                                             
C  8.05  9.30 63.58                                                             
C 12.08  6.97 10.04                                                             
C 12.08  6.97 23.43                                                             
C 12.08  6.97 36.81                                                             
C 12.08  6.97 50.20                                                             
C 12.08  6.97 63.58                                                             
C 16.10  4.65 10.04                                                             
C 16.10  4.65 23.43                                                             
C 16.10  4.65 36.81                                                             
C 16.10  4.65 50.20                                                             
C 16.10  4.65 63.58                                                             
C 20.13  2.32 10.04                                                             
C 20.13  2.32 23.43                                                             
C 20.13  2.32 36.81                                                             
C 20.13  2.32 50.20                                                             
C 20.13  2.32 63.58                                                             
C 24.16  0.00 10.04                                                             
C 24.16  0.00 23.43                                                             
C 24.16  0.00 36.81                                                             
C 24.16  0.00 50.20                                                             
C 24.16  0.00 63.58                                                             
C  4.03 16.27 10.04                                                             
C  4.03 16.27 23.43                                                             
C  4.03 16.27 36.81                                                             
C  4.03 16.27 50.20                                                             
C  4.03 16.27 63.58                                                             
C  8.05 13.95 10.04                                                             
C  8.05 13.95 23.43                                                             
C  8.05 13.95 36.81                                                             
C  8.05 13.95 50.20                                                             
C  8.05 13.95 63.58                                                             
C 12.08 11.62 10.04                                                             
C 12.08 11.62 23.43                                                             
C 12.08 11.62 36.81                                                             
C 12.08 11.62 50.20                                                             
C 12.08 11.62 63.58                                                             
C 16.10  9.30 10.04                                                             
C 16.10  9.30 23.43                                                             
C 16.10  9.30 36.81                                                             
C 16.10  9.30 50.20                                                             
C 16.10  9.30 63.58                                                             
C 20.13  6.97 10.04                                                             
C 20.13  6.97 23.43                                                             
C 20.13  6.97 36.81                                                             
C 20.13  6.97 50.20                                                             
C 20.13  6.97 63.58                                                             
C 24.16  4.65 10.04                                                             
C 24.16  4.65 23.43                                                             
C 24.16  4.65 36.81                                                             
C 24.16  4.65 50.20                                                             
C 24.16  4.65 63.58                                                             
C 28.18  2.32 10.04                                                             
C 28.18  2.32 23.43                                                             
C 28.18  2.32 36.81                                                             
C 28.18  2.32 50.20                                                             
C 28.18  2.32 63.58                                                             
C 12.08 16.27 10.04                                                             
C 12.08 16.27 23.43                                                             
C 12.08 16.27 36.81                                                             
C 12.08 16.27 50.20                                                             
C 12.08 16.27 63.58                                                             
C 16.10 13.95 10.04                                                             
C 16.10 13.95 23.43                                                             
C 16.10 13.95 36.81                                                             
C 16.10 13.95 50.20                                                             
C 16.10 13.95 63.58                                                             
C 20.13 11.62 10.04                                                             
C 20.13 11.62 23.43                                                             
C 20.13 11.62 36.81                                                             
C 20.13 11.62 50.20                                                             
C 20.13 11.62 63.58                                                             
C 24.16  9.30 10.04                                                             
C 24.16  9.30 23.43                                                             
C 24.16  9.30 36.81                                                             
C 24.16  9.30 50.20                                                             
C 24.16  9.30 63.58                                                             
C 28.18  6.97 10.04                                                             
C 28.18  6.97 23.43                                                             
C 28.18  6.97 36.81                                                             
C 28.18  6.97 50.20                                                             
C 28.18  6.97 63.58                                                             
C 20.13 16.27 10.04                                                             
C 20.13 16.27 23.43                                                             
C 20.13 16.27 36.81                                                             
C 20.13 16.27 50.20                                                             
C 20.13 16.27 63.58                                                             
C 24.16 13.95 10.04                                                             
C 24.16 13.95 23.43                                                             
C 24.16 13.95 36.81                                                             
C 24.16 13.95 50.20                                                             
C 24.16 13.95 63.58                                                             
C 28.18 11.62 10.04                                                             
C 28.18 11.62 23.43                                                             
C 28.18 11.62 36.81                                                             
C 28.18 11.62 50.20                                                             
C 28.18 11.62 63.58                                                             
C 28.18 16.27 10.04                                                             
C 28.18 16.27 23.43                                                             
C 28.18 16.27 36.81                                                             
C 28.18 16.27 50.20                                                             
C 28.18 16.27 63.58                                                             
C  1.34  2.32  3.35                                                             
C  1.34  2.32 16.73                                                             
C  1.34  2.32 30.12                                                             
C  1.34  2.32 43.51                                                             
C  1.34  2.32 56.89                                                             
C  5.37  0.00  3.35                                                             
C  5.37  0.00 16.73                                                             
C  5.37  0.00 30.12                                                             
C  5.37  0.00 43.51                                                             
C  5.37  0.00 56.89                                                             
C  1.34  6.97  3.35                                                             
C  1.34  6.97 16.73                                                             
C  1.34  6.97 30.12                                                             
C  1.34  6.97 43.51                                                             
C  1.34  6.97 56.89                                                             
C  5.37  4.65  3.35                                                             
C  5.37  4.65 16.73                                                             
C  5.37  4.65 30.12                                                             
C  5.37  4.65 43.51                                                             
C  5.37  4.65 56.89                                                             
C  9.39  2.32  3.35                                                             
C  9.39  2.32 16.73                                                             
C  9.39  2.32 30.12                                                             
C  9.39  2.32 43.51                                                             
C  9.39  2.32 56.89                                                             
C 13.42  0.00  3.35                                                             
C 13.42  0.00 16.73                                                             
C 13.42  0.00 30.12                                                             
C 13.42  0.00 43.51                                                             
C 13.42  0.00 56.89                                                             
C  1.34 11.62  3.35                                                             
C  1.34 11.62 16.73                                                             
C  1.34 11.62 30.12                                                             
C  1.34 11.62 43.51                                                             
C  1.34 11.62 56.89                                                             
C  5.37  9.30  3.35                                                             
C  5.37  9.30 16.73                                                             
C  5.37  9.30 30.12                                                             
C  5.37  9.30 43.51                                                             
C  5.37  9.30 56.89                                                             
C  9.39  6.97  3.35                                                             
C  9.39  6.97 16.73                                                             
C  9.39  6.97 30.12                                                             
C  9.39  6.97 43.51                                                             
C  9.39  6.97 56.89                                                             
C 13.42  4.65  3.35                                                             
C 13.42  4.65 16.73                                                             
C 13.42  4.65 30.12                                                             
C 13.42  4.65 43.51                                                             
C 13.42  4.65 56.89                                                             
C 17.45  2.32  3.35                                                             
C 17.45  2.32 16.73                                                             
C 17.45  2.32 30.12                                                             
C 17.45  2.32 43.51                                                             
C 17.45  2.32 56.89                                                             
C 21.47  0.00  3.35                                                             
C 21.47  0.00 16.73                                                             
C 21.47  0.00 30.12                                                             
C 21.47  0.00 43.51                                                             
C 21.47  0.00 56.89                                                             
C  1.34 16.27  3.35                                                             
C  1.34 16.27 16.73                                                             
C  1.34 16.27 30.12                                                             
C  1.34 16.27 43.51                                                             
C  1.34 16.27 56.89                                                             
C  5.37 13.95  3.35                                                             
C  5.37 13.95 16.73                                                             
C  5.37 13.95 30.12                                                             
C  5.37 13.95 43.51                                                             
C  5.37 13.95 56.89                                                             
C  9.39 11.62  3.35                                                             
C  9.39 11.62 16.73                                                             
C  9.39 11.62 30.12                                                             
C  9.39 11.62 43.51                                                             
C  9.39 11.62 56.89                                                             
C 13.42  9.30  3.35                                                             
C 13.42  9.30 16.73                                                             
C 13.42  9.30 30.12                                                             
C 13.42  9.30 43.51                                                             
C 13.42  9.30 56.89                                                             
C 17.45  6.97  3.35                                                             
C 17.45  6.97 16.73                                                             
C 17.45  6.97 30.12                                                             
C 17.45  6.97 43.51                                                             
C 17.45  6.97 56.89                                                             
C 21.47  4.65  3.35                                                             
C 21.47  4.65 16.73                                                             
C 21.47  4.65 30.12                                                             
C 21.47  4.65 43.51                                                             
C 21.47  4.65 56.89                                                             
C 25.50  2.32  3.35                                                             
C 25.50  2.32 16.73                                                             
C 25.50  2.32 30.12                                                             
C 25.50  2.32 43.51                                                             
C 25.50  2.32 56.89                                                             
C 29.52  0.00  3.35                                                             
C 29.52  0.00 16.73                                                             
C 29.52  0.00 30.12                                                             
C 29.52  0.00 43.51                                                             
C 29.52  0.00 56.89                                                             
C  9.39 16.27  3.35                                                             
C  9.39 16.27 16.73                                                             
C  9.39 16.27 30.12                                                             
C  9.39 16.27 43.51                                                             
C  9.39 16.27 56.89                                                             
C 13.42 13.95  3.35                                                             
C 13.42 13.95 16.73                                                             
C 13.42 13.95 30.12                                                             
C 13.42 13.95 43.51                                                             
C 13.42 13.95 56.89                                                             
C 17.45 11.62  3.35                                                             
C 17.45 11.62 16.73                                                             
C 17.45 11.62 30.12                                                             
C 17.45 11.62 43.51                                                             
C 17.45 11.62 56.89                                                             
C 21.47  9.30  3.35                                                             
C 21.47  9.30 16.73                                                             
C 21.47  9.30 30.12                                                             
C 21.47  9.30 43.51                                                             
C 21.47  9.30 56.89                                                             
C 25.50  6.97  3.35                                                             
C 25.50  6.97 16.73                                                             
C 25.50  6.97 30.12                                                             
C 25.50  6.97 43.51                                                             
C 25.50  6.97 56.89                                                             
C 29.52  4.65  3.35                                                             
C 29.52  4.65 16.73                                                             
C 29.52  4.65 30.12                                                             
C 29.52  4.65 43.51                                                             
C 29.52  4.65 56.89                                                             
C 17.45 16.27  3.35                                                             
C 17.45 16.27 16.73                                                             
C 17.45 16.27 30.12                                                             
C 17.45 16.27 43.51                                                             
C 17.45 16.27 56.89                                                             
C 21.47 13.95  3.35                                                             
C 21.47 13.95 16.73                                                             
C 21.47 13.95 30.12                                                             
C 21.47 13.95 43.51                                                             
C 21.47 13.95 56.89                                                             
C 25.50 11.62  3.35                                                             
C 25.50 11.62 16.73                                                             
C 25.50 11.62 30.12                                                             
C 25.50 11.62 43.51                                                             
C 25.50 11.62 56.89                                                             
C 29.52  9.30  3.35                                                             
C 29.52  9.30 16.73                                                             
C 29.52  9.30 30.12                                                             
C 29.52  9.30 43.51                                                             
C 29.52  9.30 56.89                                                             
C 25.50 16.27  3.35                                                             
C 25.50 16.27 16.73                                                             
C 25.50 16.27 30.12                                                             
C 25.50 16.27 43.51                                                             
C 25.50 16.27 56.89                                                             
C 29.52 13.95  3.35                                                             
C 29.52 13.95 16.73                                                             
C 29.52 13.95 30.12                                                             
C 29.52 13.95 43.51                                                             
C 29.52 13.95 56.89                                                             
C  2.68  0.00 10.04                                                             
C  2.68  0.00 23.43                                                             
C  2.68  0.00 36.81                                                             
C  2.68  0.00 50.20                                                             
C  2.68  0.00 63.58                                                             
C  2.68  4.65 10.04                                                             
C  2.68  4.65 23.43                                                             
C  2.68  4.65 36.81                                                             
C  2.68  4.65 50.20                                                             
C  2.68  4.65 63.58                                                             
C  6.71  2.32 10.04                                                             
C  6.71  2.32 23.43                                                             
C  6.71  2.32 36.81                                                             
C  6.71  2.32 50.20                                                             
C  6.71  2.32 63.58                                                             
C 10.74  0.00 10.04                                                             
C 10.74  0.00 23.43                                                             
C 10.74  0.00 36.81                                                             
C 10.74  0.00 50.20                                                             
C 10.74  0.00 63.58                                                             
C  2.68  9.30 10.04                                                             
C  2.68  9.30 23.43                                                             
C  2.68  9.30 36.81                                                             
C  2.68  9.30 50.20                                                             
C  2.68  9.30 63.58                                                             
C  6.71  6.97 10.04                                                             
C  6.71  6.97 23.43                                                             
C  6.71  6.97 36.81                                                             
C  6.71  6.97 50.20                                                             
C  6.71  6.97 63.58                                                             
C 10.74  4.65 10.04                                                             
C 10.74  4.65 23.43                                                             
C 10.74  4.65 36.81                                                             
C 10.74  4.65 50.20                                                             
C 10.74  4.65 63.58                                                             
C 14.76  2.32 10.04                                                             
C 14.76  2.32 23.43                                                             
C 14.76  2.32 36.81                                                             
C 14.76  2.32 50.20                                                             
C 14.76  2.32 63.58                                                             
C 18.79  0.00 10.04                                                             
C 18.79  0.00 23.43                                                             
C 18.79  0.00 36.81                                                             
C 18.79  0.00 50.20                                                             
C 18.79  0.00 63.58                                                             
C  2.68 13.95 10.04                                                             
C  2.68 13.95 23.43                                                             
C  2.68 13.95 36.81                                                             
C  2.68 13.95 50.20                                                             
C  2.68 13.95 63.58                                                             
C  6.71 11.62 10.04                                                             
C  6.71 11.62 23.43                                                             
C  6.71 11.62 36.81                                                             
C  6.71 11.62 50.20                                                             
C  6.71 11.62 63.58                                                             
C 10.74  9.30 10.04                                                             
C 10.74  9.30 23.43                                                             
C 10.74  9.30 36.81                                                             
C 10.74  9.30 50.20                                                             
C 10.74  9.30 63.58                                                             
C 14.76  6.97 10.04                                                             
C 14.76  6.97 23.43                                                             
C 14.76  6.97 36.81                                                             
C 14.76  6.97 50.20                                                             
C 14.76  6.97 63.58                                                             
C 18.79  4.65 10.04                                                             
C 18.79  4.65 23.43                                                             
C 18.79  4.65 36.81                                                             
C 18.79  4.65 50.20                                                             
C 18.79  4.65 63.58                                                             
C 22.81  2.32 10.04                                                             
C 22.81  2.32 23.43                                                             
C 22.81  2.32 36.81                                                             
C 22.81  2.32 50.20                                                             
C 22.81  2.32 63.58                                                             
C 26.84  0.00 10.04                                                             
C 26.84  0.00 23.43                                                             
C 26.84  0.00 36.81                                                             
C 26.84  0.00 50.20                                                             
C 26.84  0.00 63.58                                                             
C  6.71 16.27 10.04                                                             
C  6.71 16.27 23.43                                                             
C  6.71 16.27 36.81                                                             
C  6.71 16.27 50.20                                                             
C  6.71 16.27 63.58                                                             
C 10.74 13.95 10.04                                                             
C 10.74 13.95 23.43                                                             
C 10.74 13.95 36.81                                                             
C 10.74 13.95 50.20                                                             
C 10.74 13.95 63.58                                                             
C 14.76 11.62 10.04                                                             
C 14.76 11.62 23.43                                                             
C 14.76 11.62 36.81                                                             
C 14.76 11.62 50.20                                                             
C 14.76 11.62 63.58                                                             
C 18.79  9.30 10.04                                                             
C 18.79  9.30 23.43                                                             
C 18.79  9.30 36.81                                                             
C 18.79  9.30 50.20                                                             
C 18.79  9.30 63.58                                                             
C 22.81  6.97 10.04                                                             
C 22.81  6.97 23.43                                                             
C 22.81  6.97 36.81                                                             
C 22.81  6.97 50.20                                                             
C 22.81  6.97 63.58                                                             
C 26.84  4.65 10.04                                                             
C 26.84  4.65 23.43                                                             
C 26.84  4.65 36.81                                                             
C 26.84  4.65 50.20                                                             
C 26.84  4.65 63.58                                                             
C 30.86  2.32 10.04                                                             
C 30.86  2.32 23.43                                                             
C 30.86  2.32 36.81                                                             
C 30.86  2.32 50.20                                                             
C 30.86  2.32 63.58                                                             
C 14.76 16.27 10.04                                                             
C 14.76 16.27 23.43                                                             
C 14.76 16.27 36.81                                                             
C 14.76 16.27 50.20                                                             
C 14.76 16.27 63.58                                                             
C 18.79 13.95 10.04                                                             
C 18.79 13.95 23.43                                                             
C 18.79 13.95 36.81                                                             
C 18.79 13.95 50.20                                                             
C 18.79 13.95 63.58                                                             
C 22.81 11.62 10.04                                                             
C 22.81 11.62 23.43                                                             
C 22.81 11.62 36.81                                                             
C 22.81 11.62 50.20                                                             
C 22.81 11.62 63.58                                                             
C 26.84  9.30 10.04                                                             
C 26.84  9.30 23.43                                                             
C 26.84  9.30 36.81                                                             
C 26.84  9.30 50.20                                                             
C 26.84  9.30 63.58                                                             
C 30.86  6.97 10.04                                                             
C 30.86  6.97 23.43                                                             
C 30.86  6.97 36.81                                                             
C 30.86  6.97 50.20                                                             
C 30.86  6.97 63.58                                                             
C 22.81 16.27 10.04                                                             
C 22.81 16.27 23.43                                                             
C 22.81 16.27 36.81                                                             
C 22.81 16.27 50.20                                                             
C 22.81 16.27 63.58                                                             
C 26.84 13.95 10.04                                                             
C 26.84 13.95 23.43                                                             
C 26.84 13.95 36.81                                                             
C 26.84 13.95 50.20                                                             
C 26.84 13.95 63.58                                                             
C 30.86 11.62 10.04                                                             
C 30.86 11.62 23.43                                                             
C 30.86 11.62 36.81                                                             
C 30.86 11.62 50.20                                                             
C 30.86 11.62 63.58                                                             
C 30.86 16.27 10.04                                                             
C 30.86 16.27 23.43                                                             
C 30.86 16.27 36.81                                                             
C 30.86 16.27 50.20                                                             
C 30.86 16.27 63.58                                                             
%ENDBLOCK POSITIONS_ABS                                                         

--------------------------------------------------------------------------------
-------------------------------- END INPUT FILE --------------------------------
--------------------------------------------------------------------------------


 
<<<<<<<<<<<<<<<<<<<<<<<<<<<<<<<<< Full system >>>>>>>>>>>>>>>>>>>>>>>>>>>>>>>>>>
<<<<<<<<<<<<<<<<<<<<<<<<<<< PAW Dataset information >>>>>>>>>>>>>>>>>>>>>>>>>>>
File: ~/pp/paw/c_pbe_abinit.paw; rc = 1.25 bohr; shape type =  3; rshape = 1.25 bohr;
  Atomic number:  6;  ionic charge:  4.000000
    Partial Wave 1: l = 0
    Partial Wave 2: l = 0
    Partial Wave 3: l = 1
    Partial Wave 4: l = 1
  Core charge supplied for Nonlinear Core Corrections
<<<<<<<<<<<<<<<<<<<<<<<<<<<<<<<<<<<<<<< >>>>>>>>>>>>>>>>>>>>>>>>>>>>>>>>>>>>>>>

-------------------------- Atom counting information ---------------------------
Symbol    Natoms    Nngwfs    Nprojs
  C        640      2560      5120
.......   ......    ......    ......
Totals:    640      2560      5120
--------------------------------------------------------------------------------

=============================== PSINC grid sizes ===============================
                      Simulation cell:   63 x  35 x 132
                              FFT-box:   63 x  35 x 117
                                  PPD:    7 x   5 x   1
Grid space d1=  0.511269841270a0 (KE cutoff=  29.06054Eh = 790.77748eV)
Grid space d2=  0.531142857143a0 (KE cutoff=  26.92659Eh = 732.70972eV)
Grid space d3=  0.507045454545a0 (KE cutoff=  29.54678Eh = 804.00890eV)
================================================================================
  
WARNING in cell_grid_distribute:
Average of less than one 23-slab per node, so workload cannot be
equally balanced between nodes.

********************* Fourier parallelisation information **********************
       Coarse grid (whole simulation cell) dimensions:     63    35   132
          Real-space ('12') slabs/node (min max mean):      3     4     3
         Recip-space ('23') slabs/node (min max mean):      0     1     0
********************************************************************************

********************* Fourier parallelisation information **********************
       Double grid (whole simulation cell) dimensions:    126    70   264
          Real-space ('12') slabs/node (min max mean):      6     7     6
         Recip-space ('23') slabs/node (min max mean):      1     2     1
********************************************************************************

Atom SCF Calculation for C  : Z (AE atom) =   6 : Z (PS atom) =   4
Config String: 2s2 2p2
Orbitals (num,occ):  2     2.00 2.00
Orbitals   (num,l):  2        0    1
Real-space Grid (nr,dr,rmax): 1293    0.0069659443    9.0000000000
Spherical Bessel Basis (nsws,lmax,cutoff):   37    2  161.4736382572
Confining potential (l,width,scale):  0    3.0000000000  100.0000000000
Confining potential (l,width,scale):  1    3.0000000000  100.0000000000
  1         -5.4468762137   -1.3311033486    4.5135257941   -1.6400141247
  2         -5.4563922850   -1.3925089082    4.4492606193   -1.6178955363
  3         -5.4591606672   -1.4162756486    4.4239316220   -1.6104942496
  4         -5.4639338613   -1.4240698331    4.4156521757   -1.6083566999
  5         -5.4657436445   -1.4272842389    4.4122438165   -1.6075116305
  6         -5.4665049591   -1.4285796230    4.4108740217   -1.6071800157
  7         -5.4668137280   -1.4291083664    4.4103163978   -1.6070462938
  8         -5.4669397753   -1.4293243321    4.4100892688   -1.6069921003
  9         -5.4669910134   -1.4294128082    4.4099964732   -1.6069700140
 10         -5.4670118707   -1.4294491026    4.4099585094   -1.6069609935
 11         -5.4670203648   -1.4294640137    4.4099429536   -1.6069573023
 12         -5.4670238269   -1.4294701480    4.4099365706   -1.6069557895
 13         -5.4670252393   -1.4294726750    4.4099339478   -1.6069551687
 14         -5.4670258160   -1.4294737172    4.4099328686   -1.6069549136
 15         -5.4670260518   -1.4294741476    4.4099324241   -1.6069548086
 16         -5.4670261483   -1.4294743256    4.4099322407   -1.6069547654
Atom SCF converged after  16 iterations to a total energy of     -5.46702615

Determining parallel strategy ...
... using space-filling curve
... NGWF load balancing: max     64;  min     64;  average     64
... Projector load balancing: max    128;  min    128;  average    128
... done
Calculating Ewald energy ...
              Ewald: real-space energy =    9485.205062
        Ewald: reciprocal-space energy =       0.175253
         Ewald: (sum_charge)**2 Energy =   11111.165858
         Ewald: (sum_charge**2) Energy =     878.414789
                          Ewald Energy =   -2504.200333
Basis initialisation ...... NGWF spheres initialised
... Projector spheres initialised
... NGWF tight boxes initialised
... Projector tight boxes initialised
... Tight-boxes gathered
... NGWF basis size (local,global):     693556  27898848
... PAW projector initialisation
... done

============================= Charge Augmentation ==============================
                           Aug box size:   11 x  11 x  11
================================================================================

========================== Sparse matrix information ===========================
                        Overlap matrix filling:  42.19%
                        Density kernel filling: 100.00%
              NGWF-Proj overlap matrix filling:  12.19%
                    Aug Overlap matrix filling:  47.03%
                    Hamiltonian matrix filling:  47.03%
                  NGWF diagonal matrix filling:   0.16%
                             KS matrix filling: 100.00% 
                           KSKS matrix filling: 100.00% 
================================================================================

Sparse matrix initialisation ... done
NGWF initialisation ...... done
============ Calculation of NGWF S^-1 using Hotelling algorithm ================ 
         Iteration  |  Frobenius norm and Maximum abs value    (of I-S*S_n^-1)   
               1       0.49031738E+02     0.97564279E+00
               2       0.47782631E+02     0.95311427E+00
               3       0.45910888E+02     0.91264761E+00
               4       0.43487883E+02     0.84558668E+00
               5       0.40593057E+02     0.74608966E+00
               6       0.37243267E+02     0.67653196E+00
               7       0.33775409E+02     0.62920819E+00
               8       0.30471579E+02     0.58965311E+00
               9       0.26918018E+02     0.54585453E+00
              10       0.22408297E+02     0.47665552E+00
              11       0.16534255E+02     0.36683952E+00
              12       0.97852494E+01     0.22245304E+00
              13       0.39281509E+01     0.87347304E-01
              14       0.75643118E+00     0.15462841E-01
              15       0.33222968E-01     0.59362612E-03
              16       0.81322312E-04     0.11142306E-05
              17       0.73443808E-09     0.61763927E-11
              18       0.73595571E-13     0.35527137E-14
================================================================================
Calculating core density ...
================================= Core Density =================================
               Core den box size:   21 x  21 x  21
================================================================================
 ... done
Up spin density kernel initialisation ...... done

Writing density kernel to file "3.5418184_GO_manual_4x64graphite.dkn" ... done

>>> Optimising kernel for current NGWFs:

--------------------------- Ensemble-DFT optimisation --------------------------
Running ScaLAPACK on   40 processor(s).

--------------------------------------------------------------------------------
  Iter                              Commutator    Free_energy(A=E-TS)     DeltaA
#    0                          0.000037517272   -3651.52393247882173  -3.65E+03

Step                       =       0.381966011250
Energy                     =   -3651.523902227385
Entropy (-TS)              =      -0.000030251199
Free energy (A=E-TS)       =   -3651.523932478822
Est. 0K Energy 0.5*(E+A)   =   -3651.523917353104
Residual Non-orthogonality =       0.000000000000
Residual N_electrons       =      -0.000000000237

Spin          Integrated_Ne            Fermi_level     Delta_Fermi_level
   1      2560.000000001291         0.183803880637              1.84E-01

                           Spin 1          
     Orb      H-eigenvalues     Occupancies
       1 |    -0.5376616330    1.0000000000 | 
                          ------
    1276 |     0.1495321940    0.9999800476 | 
    1277 |     0.1501378788    0.9999758423 | 
    1278 |     0.1501552749    0.9999757092 | 
    1279 |     0.1504873846    0.9999730235 | 
    1280 |     0.1511082344    0.9999671810 | 
                 - Gap at zero temperature -
    1281 |     0.2191294626    0.0000143043 | 
    1282 |     0.2191391447    0.0000142606 | 
    1283 |     0.2191740901    0.0000141041 | 
    1284 |     0.2193421638    0.0000133751 | 
    1285 |     0.2193516621    0.0000133350 | 
                          ------
    2560 |     1.0138458010    0.0000000000 | 

                       |  Abs_value |  Threshold | Converged
     Delta_Free_energy |   3.65E+03 |   1.00E-06 |        No
     Delta_Energy      |   3.65E+03 |   1.00E-04 |        No
     Delta_Entropy     |   3.03E-05 |   1.00E-04 |       Yes
     Commutator        |   3.75E-05 |   1.00E-05 |        No
     Delta_Fermi_level |   1.84E-01 |   1.00E-03 |        No

  Line search of the free energy minimum:
  Step_type        Step             Free_energy   Predicted_free_energy
.   Initial    0.000000    -3651.52393247882173
.    Trial1    0.381966    -3651.52543478084499
.    Trial2    0.618034    -3651.52567882808535
. Quadratic    0.610187    -3651.52567908254105    -3651.52567911695951

--------------------------------------------------------------------------------
  Iter                              Commutator    Free_energy(A=E-TS)     DeltaA
#    1                          0.000021016853   -3651.52567908254105  -1.75E-03

Step                       =       0.610186773677
Energy                     =   -3651.525649105998
Entropy (-TS)              =      -0.000029976091
Free energy (A=E-TS)       =   -3651.525679082541
Est. 0K Energy 0.5*(E+A)   =   -3651.525664094270
Residual Non-orthogonality =       0.000000000000
Residual N_electrons       =      -0.000000000452

Spin          Integrated_Ne            Fermi_level     Delta_Fermi_level
   1      2560.000000002459         0.183646516029             -1.57E-04

                           Spin 1          
     Orb      H-eigenvalues     Occupancies
       1 |    -0.5397269894    1.0000000000 | 
                          ------
    1276 |     0.1494240476    0.9999797351 | 
    1277 |     0.1498771778    0.9999766178 | 
    1278 |     0.1498887139    0.9999765325 | 
    1279 |     0.1503856168    0.9999725457 | 
    1280 |     0.1508480451    0.9999682294 | 
                 - Gap at zero temperature -
    1281 |     0.2189506470    0.0000144015 | 
    1282 |     0.2189586313    0.0000143652 | 
    1283 |     0.2190014991    0.0000141721 | 
    1284 |     0.2191553407    0.0000135001 | 
    1285 |     0.2191596408    0.0000134818 | 
                          ------
    2560 |     1.0130076039    0.0000000000 | 

                       |  Abs_value |  Threshold | Converged
     Delta_Free_energy |   1.75E-03 |   1.00E-06 |        No
     Delta_Energy      |   1.75E-03 |   1.00E-04 |        No
     Delta_Entropy     |   2.75E-07 |   1.00E-04 |       Yes
     Commutator        |   2.10E-05 |   1.00E-05 |        No
     Delta_Fermi_level |   1.57E-04 |   1.00E-03 |       Yes

  Line search of the free energy minimum:
  Step_type        Step             Free_energy   Predicted_free_energy
.   Initial    0.000000    -3651.52567908254105
.    Trial1    0.610187    -3651.52525338580244
.    Trial2    0.233071    -3651.52607338232201
. Quadratic    0.250039    -3651.52607517626666    -3651.52607520662787

--------------------------------------------------------------------------------
  Iter                              Commutator    Free_energy(A=E-TS)     DeltaA
#    2                          0.000011143127   -3651.52607517626666  -3.96E-04

Step                       =       0.250039012067
Energy                     =   -3651.526045271593
Entropy (-TS)              =      -0.000029904692
Free energy (A=E-TS)       =   -3651.526075176267
Est. 0K Energy 0.5*(E+A)   =   -3651.526060223930
Residual Non-orthogonality =       0.000000000000
Residual N_electrons       =       0.000000000019

Spin          Integrated_Ne            Fermi_level     Delta_Fermi_level
   1      2559.999999999899         0.183616444039             -3.01E-05

                           Spin 1          
     Orb      H-eigenvalues     Occupancies
       1 |    -0.5400599527    1.0000000000 | 
                          ------
    1276 |     0.1493556975    0.9999799786 | 
    1277 |     0.1498611143    0.9999765142 | 
    1278 |     0.1498748882    0.9999764118 | 
    1279 |     0.1503138092    0.9999729052 | 
    1280 |     0.1508307430    0.9999681011 | 
                 - Gap at zero temperature -
    1281 |     0.2189472038    0.0000142809 | 
    1282 |     0.2189547343    0.0000142470 | 
    1283 |     0.2189955730    0.0000140645 | 
    1284 |     0.2191575193    0.0000133633 | 
    1285 |     0.2191617862    0.0000133453 | 
                          ------
    2560 |     1.0128615406    0.0000000000 | 

                       |  Abs_value |  Threshold | Converged
     Delta_Free_energy |   3.96E-04 |   1.00E-06 |        No
     Delta_Energy      |   3.96E-04 |   1.00E-04 |        No
     Delta_Entropy     |   7.14E-08 |   1.00E-04 |       Yes
     Commutator        |   1.11E-05 |   1.00E-05 |        No
     Delta_Fermi_level |   3.01E-05 |   1.00E-03 |       Yes

  Line search of the free energy minimum:
  Step_type        Step             Free_energy   Predicted_free_energy
.   Initial    0.000000    -3651.52607517626666
.    Trial1    0.250039    -3651.52617773541624
.    Trial2    0.536499    -3651.52616987890087
. Quadratic    0.376456    -3651.52619075708117    -3651.52619077072995

--------------------------------------------------------------------------------
  Iter                              Commutator    Free_energy(A=E-TS)     DeltaA
#    3                          0.000007645255   -3651.52619075708117  -1.16E-04

Step                       =       0.376456442802
Energy                     =   -3651.526160929051
Entropy (-TS)              =      -0.000029828179
Free energy (A=E-TS)       =   -3651.526190757081
Est. 0K Energy 0.5*(E+A)   =   -3651.526175843066
Residual Non-orthogonality =       0.000000000000
Residual N_electrons       =       0.000000000149

Spin          Integrated_Ne            Fermi_level     Delta_Fermi_level
   1      2559.999999999191         0.183582565957             -3.39E-05

                           Spin 1          
     Orb      H-eigenvalues     Occupancies
       1 |    -0.5404271447    1.0000000000 | 
                          ------
    1276 |     0.1493004138    0.9999801135 | 
    1277 |     0.1498262880    0.9999765212 | 
    1278 |     0.1498425512    0.9999764003 | 
    1279 |     0.1502559689    0.9999731094 | 
    1280 |     0.1507958537    0.9999681112 | 
                 - Gap at zero temperature -
    1281 |     0.2189292977    0.0000142091 | 
    1282 |     0.2189373639    0.0000141729 | 
    1283 |     0.2189766304    0.0000139983 | 
    1284 |     0.2191427810    0.0000132828 | 
    1285 |     0.2191469936    0.0000132651 | 
                          ------
    2560 |     1.0127169804    0.0000000000 | 

                       |  Abs_value |  Threshold | Converged
     Delta_Free_energy |   1.16E-04 |   1.00E-06 |        No
     Delta_Energy      |   1.16E-04 |   1.00E-04 |        No
     Delta_Entropy     |   7.65E-08 |   1.00E-04 |       Yes
     Commutator        |   7.65E-06 |   1.00E-05 |       Yes
     Delta_Fermi_level |   3.39E-05 |   1.00E-03 |       Yes

  Line search of the free energy minimum:
  Step_type        Step             Free_energy   Predicted_free_energy
.   Initial    0.000000    -3651.52619075708117
.    Trial1    0.376456    -3651.52622944264294
.    Trial2    0.614629    -3651.52614787873290
. Quadratic    0.259160    -3651.52623941949014    -3651.52623940882677

--------------------------------------------------------------------------------
  Iter                              Commutator    Free_energy(A=E-TS)     DeltaA
#    4                          0.000004985848   -3651.52623941949014  -4.87E-05

Step                       =       0.259160305041
Energy                     =   -3651.526209621805
Entropy (-TS)              =      -0.000029797393
Free energy (A=E-TS)       =   -3651.526239419490
Est. 0K Energy 0.5*(E+A)   =   -3651.526224520648
Residual Non-orthogonality =       0.000000000000
Residual N_electrons       =      -0.000000000292

Spin          Integrated_Ne            Fermi_level     Delta_Fermi_level
   1      2560.000000001593         0.183568347613             -1.42E-05

                           Spin 1          
[...]
 C   160 -- C   385       -0.09      5.37000
 C   159 -- C   384       -0.09      5.37000
 C   158 -- C   383       -0.09      5.37000
 C   157 -- C   382       -0.09      5.37000
 C   156 -- C   381       -0.09      5.37000
 C   155 -- C   355       -0.09      5.37000
 C   154 -- C   354       -0.09      5.37000
 C   153 -- C   353       -0.09      5.37000
 C   152 -- C   352       -0.09      5.37000
 C   151 -- C   351       -0.09      5.37000
 C   140 -- C   335       -0.09      5.37000
 C   139 -- C   334       -0.09      5.37000
 C   138 -- C   333       -0.09      5.37000
 C   137 -- C   332       -0.09      5.37000
 C   136 -- C   331       -0.09      5.37000
 C   115 -- C   325       -0.09      5.37000
 C   114 -- C   324       -0.09      5.37000
 C   113 -- C   323       -0.09      5.37000
 C   112 -- C   322       -0.09      5.37000
 C   111 -- C   321       -0.09      5.37000
 C   219 -- C   569       -0.09      5.37202
 C   218 -- C   568       -0.09      5.37202
 C   217 -- C   567       -0.09      5.37202
 C   216 -- C   566       -0.09      5.37202
 C   285 -- C   580       -0.09      5.37202
 C   284 -- C   579       -0.09      5.37202
 C   283 -- C   578       -0.09      5.37202
 C   282 -- C   577       -0.09      5.37202
 C   281 -- C   576       -0.09      5.37202
 C   260 -- C   605       -0.09      5.37202
 C   259 -- C   604       -0.09      5.37202
 C   258 -- C   603       -0.09      5.37202
 C   257 -- C   602       -0.09      5.37202
 C   256 -- C   601       -0.09      5.37202
 C   250 -- C   540       -0.09      5.37202
 C   249 -- C   539       -0.09      5.37202
 C   248 -- C   538       -0.09      5.37202
 C   247 -- C   537       -0.09      5.37202
 C   246 -- C   536       -0.09      5.37202
 C   220 -- C   570       -0.09      5.37202
 C   220 -- C   515       -0.09      5.37202
 C   219 -- C   514       -0.09      5.37202
 C   218 -- C   513       -0.09      5.37202
 C   217 -- C   512       -0.09      5.37202
 C   216 -- C   511       -0.09      5.37202
 C    95 -- C   425       -0.09      5.37202
 C    94 -- C   424       -0.09      5.37202
 C    93 -- C   423       -0.09      5.37202
 C   195 -- C   540       -0.09      5.37202
 C   195 -- C   500       -0.09      5.37202
 C   194 -- C   539       -0.09      5.37202
 C    92 -- C   422       -0.09      5.37202
 C   194 -- C   499       -0.09      5.37202
 C   193 -- C   538       -0.09      5.37202
 C   193 -- C   498       -0.09      5.37202
 C   192 -- C   537       -0.09      5.37202
 C    91 -- C   421       -0.09      5.37202
 C   192 -- C   497       -0.09      5.37202
 C   191 -- C   536       -0.09      5.37202
 C   191 -- C   496       -0.09      5.37202
 C    85 -- C   355       -0.09      5.37202
 C   180 -- C   515       -0.09      5.37202
 C    84 -- C   354       -0.09      5.37202
 C   179 -- C   514       -0.09      5.37202
 C    83 -- C   353       -0.09      5.37202
 C   178 -- C   513       -0.09      5.37202
 C   177 -- C   512       -0.09      5.37202
 C    82 -- C   352       -0.09      5.37202
 C   176 -- C   511       -0.09      5.37202
 C    81 -- C   351       -0.09      5.37202
 C   120 -- C   395       -0.09      5.37202
 C    55 -- C   385       -0.09      5.37202
 C   119 -- C   394       -0.09      5.37202
 C   118 -- C   393       -0.09      5.37202
 C   117 -- C   392       -0.09      5.37202
 C    54 -- C   384       -0.09      5.37202
 C   116 -- C   391       -0.09      5.37202
 C    53 -- C   383       -0.09      5.37202
 C    52 -- C   382       -0.09      5.37202
 C    51 -- C   381       -0.09      5.37202
 C   205 -- C   550       -0.09      5.37202
 C   204 -- C   549       -0.09      5.37202
 C   203 -- C   548       -0.09      5.37202
 C   202 -- C   547       -0.09      5.37202
 C   201 -- C   546       -0.09      5.37202
 C    95 -- C   365       -0.09      5.37202
 C    94 -- C   364       -0.09      5.37202
 C    93 -- C   363       -0.09      5.37202
 C    92 -- C   362       -0.09      5.37202
 C    91 -- C   361       -0.09      5.37202
 C    65 -- C   395       -0.09      5.37202
 C    64 -- C   394       -0.09      5.37202
 C    63 -- C   393       -0.09      5.37202
 C    30 -- C   355       -0.09      5.37202
 C    62 -- C   392       -0.09      5.37202
 C    61 -- C   391       -0.09      5.37202
 C    29 -- C   354       -0.09      5.37202
 C   260 -- C   550       -0.09      5.37202
 C   259 -- C   549       -0.09      5.37202
 C    28 -- C   353       -0.09      5.37202
 C   258 -- C   548       -0.09      5.37202
 C   257 -- C   547       -0.09      5.37202
 C   256 -- C   546       -0.09      5.37202
 C    27 -- C   352       -0.09      5.37202
 C    26 -- C   351       -0.09      5.37202
 C    55 -- C   335       -0.09      5.37202
 C    54 -- C   334       -0.09      5.37202
 C    53 -- C   333       -0.09      5.37202
 C   230 -- C   580       -0.09      5.37202
 C   230 -- C   525       -0.09      5.37202
 C   229 -- C   579       -0.09      5.37202
 C   229 -- C   524       -0.09      5.37202
 C   228 -- C   578       -0.09      5.37202
 C    52 -- C   332       -0.09      5.37202
 C   228 -- C   523       -0.09      5.37202
 C   227 -- C   577       -0.09      5.37202
 C   227 -- C   522       -0.09      5.37202
 C   226 -- C   576       -0.09      5.37202
 C   226 -- C   521       -0.09      5.37202
 C    51 -- C   331       -0.09      5.37202
 C    23 -- C   478       -0.09      5.37202
 C    49 -- C   469       -0.09      5.37202
 C    11 -- C   331       -0.09      5.37202
 C    48 -- C   468       -0.09      5.37202
 C    47 -- C   467       -0.09      5.37202
 C    22 -- C   477       -0.09      5.37202
 C    46 -- C   466       -0.09      5.37202
 C    21 -- C   476       -0.09      5.37202
 C    40 -- C   365       -0.09      5.37202
 C    39 -- C   364       -0.09      5.37202
 C    38 -- C   363       -0.09      5.37202
 C    37 -- C   362       -0.09      5.37202
 C    36 -- C   361       -0.09      5.37202
 C    15 -- C   335       -0.09      5.37202
 C    65 -- C   345       -0.09      5.37202
 C    64 -- C   344       -0.09      5.37202
 C    63 -- C   343       -0.09      5.37202
 C    30 -- C   325       -0.09      5.37202
 C    14 -- C   334       -0.09      5.37202
 C    62 -- C   342       -0.09      5.37202
 C    61 -- C   341       -0.09      5.37202
 C    29 -- C   324       -0.09      5.37202
 C    28 -- C   323       -0.09      5.37202
 C    13 -- C   333       -0.09      5.37202
 C    27 -- C   322       -0.09      5.37202
 C    26 -- C   321       -0.09      5.37202
 C    25 -- C   480       -0.09      5.37202
 C    12 -- C   332       -0.09      5.37202
 C    24 -- C   479       -0.09      5.37202
 C    50 -- C   470       -0.09      5.37202
 C    24 -- C   449       -0.09      5.37202
 C     6 -- C   416       -0.09      5.37202
 C    23 -- C   448       -0.09      5.37202
 C    22 -- C   447       -0.09      5.37202
 C    10 -- C   470       -0.09      5.37202
 C     5 -- C   450       -0.09      5.37202
 C    21 -- C   446       -0.09      5.37202
 C    10 -- C   420       -0.09      5.37202
 C     9 -- C   469       -0.09      5.37202
 C     9 -- C   419       -0.09      5.37202
 C     8 -- C   468       -0.09      5.37202
 C     4 -- C   449       -0.09      5.37202
 C   150 -- C   440       -0.09      5.37202
 C   149 -- C   439       -0.09      5.37202
 C   148 -- C   438       -0.09      5.37202
 C   147 -- C   437       -0.09      5.37202
 C     8 -- C   418       -0.09      5.37202
 C   146 -- C   436       -0.09      5.37202
 C     2 -- C   447       -0.09      5.37202
 C   135 -- C   460       -0.09      5.37202
 C     7 -- C   467       -0.09      5.37202
 C   134 -- C   459       -0.09      5.37202
 C   133 -- C   458       -0.09      5.37202
 C   132 -- C   457       -0.09      5.37202
 C   131 -- C   456       -0.09      5.37202
 C     7 -- C   417       -0.09      5.37202
 C     1 -- C   446       -0.09      5.37202
 C     6 -- C   466       -0.09      5.37202
 C    25 -- C   450       -0.09      5.37202
 C     3 -- C   448       -0.09      5.37202
 C   106 -- C   436       -0.09      5.37202
 C   106 -- C   376       -0.09      5.37202
 C    80 -- C   410       -0.09      5.37202
 C    79 -- C   409       -0.09      5.37202
 C    78 -- C   408       -0.09      5.37202
 C    77 -- C   407       -0.09      5.37202
 C    76 -- C   406       -0.09      5.37202
 C   135 -- C   410       -0.09      5.37202
 C   134 -- C   409       -0.09      5.37202
 C   133 -- C   408       -0.09      5.37202
 C   132 -- C   407       -0.09      5.37202
 C   131 -- C   406       -0.09      5.37202
 C   110 -- C   440       -0.09      5.37202
 C   110 -- C   380       -0.09      5.37202
 C   109 -- C   439       -0.09      5.37202
 C   109 -- C   379       -0.09      5.37202
 C   108 -- C   438       -0.09      5.37202
 C   108 -- C   378       -0.09      5.37202
 C   107 -- C   437       -0.09      5.37202
 C   107 -- C   377       -0.09      5.37202
 C   215 -- C   635       -0.09      5.38000
 C   214 -- C   634       -0.09      5.38000
 C   213 -- C   633       -0.09      5.38000
 C   212 -- C   632       -0.09      5.38000
 C   211 -- C   631       -0.09      5.38000
 C   190 -- C   620       -0.09      5.38000
 C   189 -- C   619       -0.09      5.38000
 C   188 -- C   618       -0.09      5.38000
 C   187 -- C   617       -0.09      5.38000
 C   186 -- C   616       -0.09      5.38000
 C   175 -- C   595       -0.09      5.38000
 C   174 -- C   594       -0.09      5.38000
 C   173 -- C   593       -0.09      5.38000
 C   172 -- C   592       -0.09      5.38000
 C   171 -- C   591       -0.09      5.38000
 C   245 -- C   640       -0.09      5.38000
 C   244 -- C   639       -0.09      5.38000
 C   243 -- C   638       -0.09      5.38000
 C   242 -- C   637       -0.09      5.38000
 C   241 -- C   636       -0.09      5.38000
==================================================


=================== Orbital energy and occupancy information ===================

      Total number of orbitals:    2560
        Occupancy sum (kernel):    1279.999999999
   Occupancy sum (eigenvalues):    1279.999999999
                 HOMO-LUMO gap:       0.064730106 Eh
                 Mid-gap level:       0.234529984 Eh

                        Orbital | Energy (Eh) | Occupancy
                            1    -0.487237984   1.0000000
                        .......   ...........   .........
                         1271     0.197078453   0.9999888
                         1272     0.197109424   0.9999887
                         1273     0.197549203   0.9999870
                         1274     0.197580089   0.9999869
                         1275     0.200672648   0.9999653
                         1276     0.200680180   0.9999652
                         1277     0.201136409   0.9999598
                         1278     0.201143961   0.9999597
                         1279     0.201707234   0.9999518
                         1280     0.202164932   0.9999443
                        ....... -- gap at 0K -- .........
                         1281     0.266895037   0.0000238
                         1282     0.266905728   0.0000237
                         1283     0.267144929   0.0000220
                         1284     0.267155916   0.0000219
                         1285     0.267405324   0.0000203
                         1286     0.267418955   0.0000202
                         1287     0.267667808   0.0000187
                         1288     0.267681690   0.0000186
                         1289     0.267798539   0.0000179
                         1290     0.267899577   0.0000173
                        .......   ...........   .........
                         2560     1.122362583   0.0000000

================================================================================

===================== Writing canonical molecular orbitals =====================
| Orbital  Energy (eV)  Norm     |
| HOMO      5.50118771  1.000000 | Writing "3.5418184_GO_manual_4x64graphite_HOMO.cube" ... done
Writing "3.5418184_GO_manual_4x64graphite_HOMO.dx" ... done
| LUMO      7.26258351  1.000000 | Writing "3.5418184_GO_manual_4x64graphite_LUMO.cube" ... done
Writing "3.5418184_GO_manual_4x64graphite_LUMO.dx" ... done
================================================================================
 
===================== Density of States (DOS) calculation ======================
Writing "3.5418184_GO_manual_4x64graphite_DOS.txt" ...  done
================================================================================
 
Writing bands to file "3.5418184_GO_manual_4x64graphite.val_bands" ... done
 
================ Projected Density of States (pDOS) calculation ================
 
Constructing AM resolved functions  ...... done
Writing NGWF plot files in formats: CUBE DX ...  done
 
Performing overlap integrals ...  done
 
Computing pDOS weights ...  done
 
All bands spilling parameter =   3.38 %
Occupancy-weighted spilling parameter =   0.89 %
 
 => Outputting data for OptaDOS <=
 
Writing pDOS weights to file "3.5418184_GO_manual_4x64graphite.val_pdos_bin" ... done
 
Writing band gradients to file "3.5418184_GO_manual_4x64graphite.val_dome_bin" ... done
 
Writing Castep output cell file to "3.5418184_GO_manual_4x64graphite-out.cell" ... done
 
 => Computing Gaussian smeared pDOS <= 
Writing "3.5418184_GO_manual_4x64graphite_PDOS.txt" ...  done
 
 => Computing Occupancy-weighted Gaussian smeared pDOS <= 
Writing "3.5418184_GO_manual_4x64graphite_occ_PDOS.txt" ...  done
  => Band centres: 
 S band centre of group 1:  -13.822533 eV
 P band centre of group 1:   -6.710609 eV
  Band centres done. <=
  => Integrated number of electrons in each AM band: 
 S num electrons of group 1:  574.154594
 P num electrons of group 1: 1963.093723
  Integrated number of electrons done. <=
================================================================================

------------------------------ TIMING INFORMATION ------------------------------
AVERAGE TIME:    3367.412s on     40 node(s)                                    
TOTAL TIME:      3367.413s on     40 node(s)                                    
================= AVERAGE TIMINGS FROM ALL NODES (CUMULATIVE) ==================
|| TAG                                    #calls    cpu time   %total  Gflops ||
|| work_imbalance                       :     1        0.00s   0.000%  ------ ||
|| paw_tcore_hartree_on_grid            :     1        0.01s   0.000%  ------ ||
|| paw_tcore_density                    :     1        0.01s   0.000%  ------ ||
|| paw_sphere_density_on_grid           :     1        0.01s   0.000%  ------ ||
|| sparse_set_to_garbage                :   147        0.02s   0.001%  ------ ||
|| paw_dij_hartree                      :   304        0.04s   0.001%  ------ ||
|| pseudo_make_structure_factor         :     1        0.06s   0.002%  ------ ||
|| basis_extract_function_from_box      :  1664        0.07s   0.002%  ------ ||
|| paw_species_calc_proj_prec_mat       :     1        0.12s   0.004%  ------ ||
|| paw_dataset_init                     :     1        0.15s   0.004%  ------ ||
|| density_init_guess_real              :     1        0.23s   0.007%  ------ ||
|| restart_kernel_write                 :    14        0.64s   0.019%  ------ ||
|| ngwfs_initialise_from_radial         :     2        0.67s   0.020%  ------ ||
|| sparse_init                          :     1        0.92s   0.027%  ------ ||
|| dense_normal_eigensolve              :     1        1.14s   0.034%  ------ ||
|| hartree_on_grid                      :   228        1.16s   0.035%  ------ ||
|| projectors_init_fftbox_recip         :   131        2.51s   0.075%  ------ ||
|| ewald_calculate_energy               :     1        2.81s   0.083%  ------ ||
|| fourier_apply_box_pair               :  2464        4.07s   0.121% 561.028 ||
|| basis_copy_function_to_box           : 21696        4.68s   0.139%  ------ ||
|| augmentation_screen_dij              :   233        5.18s   0.154%  ------ ||
|| sw_init                              :     1        6.74s   0.200%  ------ ||
|| sparse_embed_hotelling_invert_embed  :    25        7.10s   0.211%  ------ ||
|| ngwf_gradient_coeffs                 :    13        9.15s   0.272%  ------ ||
|| sparse_trace                         :  2752       12.74s   0.378%  ------ ||
|| fourier_apply_cell_backward          :  7039       13.04s   0.387%  67.162 ||
|| fourier_apply_cell_forward           :  6584       13.93s   0.414%  58.832 ||
|| cell_grid_extract_box_real           :  9180       14.79s   0.439%  ------ ||
|| cell_grid_deposit_box_real           : 29360       18.45s   0.548%  ------ ||
|| paw_dij_xc                           :   304       20.70s   0.615%  ------ ||
|| aug_nonlocal_mat                     :   291       30.28s   0.899%  ------ ||
|| density_fftbox_deposit_to_cell       : 14592       36.83s   1.094%  ------ ||
|| augmentation_density_on_grid         :   228       41.00s   1.218%  ------ ||
|| hamiltonian_energy_components        :     3       46.76s   1.389%  ------ ||
|| function_ops_brappd_ketppd           :    52       49.66s   1.475%  ------ ||
|| eigenstates_pdos                     :     1       54.63s   1.622%  ------ ||
|| nlxc_vdw_energy                      :   454       57.06s   1.694%  ------ ||
|| projectors_func_ovlp_box             :    26       58.36s   1.733%  ------ ||
|| eigenstates_calculate                :     1       58.81s   1.747%  ------ ||
|| xc_energy_potential                  :   227       66.15s   1.965%  ------ ||
|| integrals_kinetic                    :    25       81.92s   2.433%  ------ ||
|| dense_eigensolve                     :   199       99.88s   2.966%  ------ ||
|| properties_calculate                 :     1      104.39s   3.100%  ------ ||
|| potential_apply_to_ngwf_batch        :   288      111.69s   3.317%  ------ ||
|| sparse_product                       :  2792      112.67s   3.346%  ------ ||
|| restart_ngwfs_tightbox_output        :    12      169.78s   5.042%  ------ ||
|| basis_dot_function_with_box          : 6.880M     186.96s   5.552%  ------ ||
|| fourier_apply_box                    : 68352      212.21s   6.302% 978.970 ||
|| edft_diag_ngwf_ham                   :   198      221.76s   6.585%  ------ ||
|| projectors_gradient_batch            :    52      233.67s   6.939%  ------ ||
|| integrals_locpot_mat_els_batch       :   288      245.55s   7.292%  ------ ||
|| density_fftbox_interpolate_multiply  : 14592      282.13s   8.378%  ------ ||
|| projectors_grad_precond_batch        :    52      322.46s   9.576%  ------ ||
|| density_batch_interp_deposit         :   912      352.86s  10.479%  ------ ||
|| integrals_locpot_dbl_grid            :    72      358.60s  10.649%  ------ ||
|| edft_apply_smearing_operator         :   198      430.13s  12.773%  ------ ||
|| basis_add_function_to_box            : 19.35M     507.40s  15.068%  ------ ||
|| ngwf_gradient_build_batch            :    52      595.42s  17.682%  ------ ||
|| density_batch_row_sums               :   912      696.73s  20.690%  ------ ||
|| ngwf_gradient_batch                  :    52      791.61s  23.508%  ------ ||
|| ngwf_gradient_lnv                    :    13      819.95s  24.350%  ------ ||
|| density_on_dbl_grid                  :   228     1062.10s  31.541%  ------ ||
|| hamiltonian_lhxc_calculate           :   223     1147.05s  34.063%  ------ ||
|| edft_calculate                       :    13     1919.07s  56.989%  ------ ||
|| ngwf_cg_optimise                     :     1     3237.69s  96.148%  ------ ||
|| total_time                           :     1     3367.41s 100.000%  ------ ||
================================================================================
Overhead of generating timer report: 
- 0 ms averaging over threads,
- 5 ms ensuring consistency across MPI ranks,
- 0 ms printing in order.

Job completed: 25-02-2020 16:20 (-0000)

