 +---------------------------------------------------------------+
 |                                                               |
 |        ####### #     # ####### ####### ####### ######         |
 |        #     # ##    # #          #    #       #     #        |
 |        #     # # #   # #          #    #       #     #        |
 |        #     # #  #  # #####      #    #####   ######         |
 |        #     # #   # # #          #    #       #              |
 |        #     # #    ## #          #    #       #              |
 |        ####### #     # #######    #    ####### #              |
 |                                                               |
 |        Linear-Scaling Ab Initio Total Energy Program          |
 |                                                               |
 |          Release for academic collaborators of ODG            |
 |                                             Version 5.3.2.12  |
 |                                                               |
 +---------------------------------------------------------------+
 |                                                               |
 |  Authors:                                                     |
 |  Jacek Dziedzic, Peter D. Haynes, Nicholas D. M. Hine,        |
 |  Arash. A. Mostofi, Mike C. Payne and Chris-Kriton Skylaris   |
 |                                                               |
 |  Contributors:                                                |
 |  J. Aarons, L. Andrinopoulos, P. W. Avraam, R. A. Bell,       |
 |  A. Bhandari, G. A. Bramley, R. J. Charlton, S. J. Clark,     |
 |  R. J. Clements, G. C. Constantinescu, F. Corsetti,           |
 |  N. Corsini, O. Dieguez, S. M. M. Dubois, K. K. B. Duff,      |
 |  J. M. Escartin, A. Greco, H. Helal, Q. O. Hill, L. P. Lee,   |
 |  J.-H. Li, E. B. Linscott, G. Moynihan, D. D. O`Regan,        |
 |  O. K. Okan, M. J. S. Phipps, C. J. Pickard,                  |
 |  J. C. A. Prentice, M. I. J. Probert, L. E. Ratcliff,         |
 |  M. Robinson, A. Ruiz Serrano, J. S. Spencer, E. W. Tait,     |
 |  G. Teobaldi, D. Turban, V. Vitale, K. A. Wilkinson,          |
 |  C. Weber, J. C. Womack, N. Yeung and T. J. Zuehlsdorff       |
 |                                                               |
 |                                   Copyright (c) 2004-2020     |
 |                                                               |
 |  Please cite:                                                 |
 |  "Introducing ONETEP: Linear-scaling density functional       |
 |   simulations on parallel computers".                         |
 |   C.-K. Skylaris, P. D. Haynes, A. A. Mostofi, M. C. Payne.   |
 |   J. Chem. Phys. 122 084119 (2005).                           |
 |                                                               |
 |          in all publications arising from your use of ONETEP. |
 |                                                               |
 +---------------------------------------------------------------+
 |                                                               |
 |   ONETEP is based on developments described in the following  |
 |   publications:                                               |
 |                                                               |
 |  "Nonorthogonal generalized Wannier function pseudopotential  |
 |   plane-wave method".                                         |
 |   C.-K. Skylaris, A. A. Mostofi, P. D. Haynes, O. Dieguez,    |
 |   M. C. Payne.                                                |
 |   Phys. Rev. B 66 035119 (2002).                              |
 |                                                               |
 |  "Preconditioned iterative minimization for linear-scaling    |
 |   electronic structure calculations".                         |
 |   A. A. Mostofi, P. D. Haynes, C.-K. Skylaris, M. C. Payne.   |
 |   J. Chem. Phys. 119(17), pp.8842-8848 (2003).                |
 |                                                               |
 |  "Total-energy calculations on a real space grid with         |
 |   localized functions and a plane-wave basis".                |
 |   A. A. Mostofi, C.-K. Skylaris, P. D. Haynes, M. C. Payne.   |
 |   Comput. Phys. Commun. 147, pp.788-802 (2002).               |
 |                                                               |
 |  "Accurate kinetic energy evaluation in electronic structure  |
 |   calculations with localized functions on real space grids"  |
 |   C.-K. Skylaris, A. A. Mostofi, P. D. Haynes, C. J. Pickard, |
 |   M. C. Payne.                                                |
 |   Comput. Phys. Commun. 140, pp.315-322 (2001).               |
 |                                                               |
 |  "Accurate ionic forces and geometry optimization in linear-  |
 |   scaling density-functional theory with local orbitals"      |
 |   N. D. M. Hine, M. Robinson, P. D. Haynes, C.-K. Skylaris,   |
 |   M. C. Payne, and A. A. Mostofi.                             |
 |   Phys. Rev. B 83 195102 (2011).                              |
 |                                                               |
 +---------------------------------------------------------------+

Job started: 25-02-2020 15:27 (-0000)
 
Reading parameters from file "3.5954808_GO_manual_4x64graphite.dat" ...

WARNING: "cutoff_energy" not specified, but "psinc_spacing" specified.
         Using the latter to set the KE cutoff energy to  732.32021eV,
         thus *overriding* the default.

... done

If your calculation crashes here, before "Checking processes and threads..."
is displayed, then your stack size is insufficient.
If so, use "ulimit -s unlimited" at runtime.
You can disable this check with "check_stack_size F".

Checking processes and threads...
   Determining the default number of threads...
      No default threads set at compilation time: defaulting to 1.
      OpenMP library call suggests 4 threads.
      Hybrid MPI-OpenMP compilation detected.
      Number of MPI processes > 1.
      OMP_NUM_THREADS environment variable present and
      its value matches the one obtained from the OpenMP library call.
      Using this value as default.
      Default threads: 4
      Default applies to threads_max and threads_num_fftboxes.
      Settings in the input file override this default.
   ... done

   Running with 40 MPI processes.
   There are 10 MPI processes running on the same node as the root process.
   Each MPI process is using: 
               1 threads for simulation cell FFTs.
               1 threads for parallel FFT box operations.
               4 threads for loops over batched FFT box operations.
               4 threads in other parallel regions.
... done

Basic input checks...
Resetting ngwf_cg_rotate to TRUE for EDFT calculations
... done

Reading geometry and species blocks from file "3.5954808_GO_manual_4x64graphite.dat" ...
    
  PSINC grid spacing along a1 set to   0.511215680000a0 from input file.
  PSINC grid spacing along a2 set to   0.531284090000a0 from input file.
  PSINC grid spacing along a3 set to   0.507051340000a0 from input file.
  Number of PPD points along a3 set to 1.  This is 
  the default value, it may have been provided also in the input file.
... done
 Writing xyz coordinates to file "3.5954808_GO_manual_4x64graphite.xyz" ... done


--------------------------------------------------------------------------------
---------------------------------- INPUT FILE ----------------------------------
--------------------------------------------------------------------------------

task : singlepoint                                                              
do_properties : true                                                            
dx_format T                                                                     
edft T                                                                          
output_detail VERBOSE                                                           
write_xyz T                                                                     
xc_functional OPTB88                                                            
PSINC_SPACING 0.51121568 0.53128409 0.50705134                                  
paw T                                                                           
pdos_max_l = 2                                                                  
dos_smear  0.1 eV                                                               
popn_calculate T                                                                
PDOS_PSEUDOATOMIC T                                                             
PDOS_REDUCE_SWS F                                                               
PDOS_CONSTRUCT_BASIS F                                                          
PDOS_LOWDIN T                                                                   
PDOS_ORTH_ATOM_BLOCKS F                                                         
PDOS_LCAO_OPTIMIZE F                                                            
pdos_optados_output T                                                           
homo_plot 0                                                                     
lumo_plot 0                                                                     
homo_dens_plot -1                                                               
lumo_dens_plot -1                                                               
%BLOCK SPECIES                                                                  
C C 6 4 9.0                                                                     
%ENDBLOCK SPECIES                                                               
%BLOCK SPECIES_POT                                                              
C "~/pp/paw/c_pbe_abinit.paw"                                                   
%ENDBLOCK SPECIES_POT                                                           
%BLOCK SPECIES_ATOMIC_SET                                                       
C "SOLVE conf=2s2 2p2"                                                          
%ENDBLOCK SPECIES_ATOMIC_SET                                                    
%BLOCK LATTICE_CART                                                             
32.21  0.00  0.00                                                               
0.00 18.59  0.00                                                                
0.00  0.00 67.94                                                                
%ENDBLOCK LATTICE_CART                                                          
%BLOCK POSITIONS_ABS                                                            
C  0.00  0.00  3.40                                                             
C  0.00  0.00 16.99                                                             
C  0.00  0.00 30.58                                                             
C  0.00  0.00 44.16                                                             
C  0.00  0.00 57.75                                                             
C  0.00  4.65  3.40                                                             
C  0.00  4.65 16.99                                                             
C  0.00  4.65 30.58                                                             
C  0.00  4.65 44.16                                                             
C  0.00  4.65 57.75                                                             
C  4.03  2.32  3.40                                                             
C  4.03  2.32 16.99                                                             
C  4.03  2.32 30.58                                                             
C  4.03  2.32 44.16                                                             
C  4.03  2.32 57.75                                                             
C  8.05  0.00  3.40                                                             
C  8.05  0.00 16.99                                                             
C  8.05  0.00 30.58                                                             
C  8.05  0.00 44.16                                                             
C  8.05  0.00 57.75                                                             
C  0.00  9.30  3.40                                                             
C  0.00  9.30 16.99                                                             
C  0.00  9.30 30.58                                                             
C  0.00  9.30 44.16                                                             
C  0.00  9.30 57.75                                                             
C  4.03  6.97  3.40                                                             
C  4.03  6.97 16.99                                                             
C  4.03  6.97 30.58                                                             
C  4.03  6.97 44.16                                                             
C  4.03  6.97 57.75                                                             
C  8.05  4.65  3.40                                                             
C  8.05  4.65 16.99                                                             
C  8.05  4.65 30.58                                                             
C  8.05  4.65 44.16                                                             
C  8.05  4.65 57.75                                                             
C 12.08  2.32  3.40                                                             
C 12.08  2.32 16.99                                                             
C 12.08  2.32 30.58                                                             
C 12.08  2.32 44.16                                                             
C 12.08  2.32 57.75                                                             
C 16.10  0.00  3.40                                                             
C 16.10  0.00 16.99                                                             
C 16.10  0.00 30.58                                                             
C 16.10  0.00 44.16                                                             
C 16.10  0.00 57.75                                                             
C  0.00 13.95  3.40                                                             
C  0.00 13.95 16.99                                                             
C  0.00 13.95 30.58                                                             
C  0.00 13.95 44.16                                                             
C  0.00 13.95 57.75                                                             
C  4.03 11.62  3.40                                                             
C  4.03 11.62 16.99                                                             
C  4.03 11.62 30.58                                                             
C  4.03 11.62 44.16                                                             
C  4.03 11.62 57.75                                                             
C  8.05  9.30  3.40                                                             
C  8.05  9.30 16.99                                                             
C  8.05  9.30 30.58                                                             
C  8.05  9.30 44.16                                                             
C  8.05  9.30 57.75                                                             
C 12.08  6.97  3.40                                                             
C 12.08  6.97 16.99                                                             
C 12.08  6.97 30.58                                                             
C 12.08  6.97 44.16                                                             
C 12.08  6.97 57.75                                                             
C 16.10  4.65  3.40                                                             
C 16.10  4.65 16.99                                                             
C 16.10  4.65 30.58                                                             
C 16.10  4.65 44.16                                                             
C 16.10  4.65 57.75                                                             
C 20.13  2.32  3.40                                                             
C 20.13  2.32 16.99                                                             
C 20.13  2.32 30.58                                                             
C 20.13  2.32 44.16                                                             
C 20.13  2.32 57.75                                                             
C 24.16  0.00  3.40                                                             
C 24.16  0.00 16.99                                                             
C 24.16  0.00 30.58                                                             
C 24.16  0.00 44.16                                                             
C 24.16  0.00 57.75                                                             
C  4.03 16.27  3.40                                                             
C  4.03 16.27 16.99                                                             
C  4.03 16.27 30.58                                                             
C  4.03 16.27 44.16                                                             
C  4.03 16.27 57.75                                                             
C  8.05 13.95  3.40                                                             
C  8.05 13.95 16.99                                                             
C  8.05 13.95 30.58                                                             
C  8.05 13.95 44.16                                                             
C  8.05 13.95 57.75                                                             
C 12.08 11.62  3.40                                                             
C 12.08 11.62 16.99                                                             
C 12.08 11.62 30.58                                                             
C 12.08 11.62 44.16                                                             
C 12.08 11.62 57.75                                                             
C 16.10  9.30  3.40                                                             
C 16.10  9.30 16.99                                                             
C 16.10  9.30 30.58                                                             
C 16.10  9.30 44.16                                                             
C 16.10  9.30 57.75                                                             
C 20.13  6.97  3.40                                                             
C 20.13  6.97 16.99                                                             
C 20.13  6.97 30.58                                                             
C 20.13  6.97 44.16                                                             
C 20.13  6.97 57.75                                                             
C 24.16  4.65  3.40                                                             
C 24.16  4.65 16.99                                                             
C 24.16  4.65 30.58                                                             
C 24.16  4.65 44.16                                                             
C 24.16  4.65 57.75                                                             
C 28.18  2.32  3.40                                                             
C 28.18  2.32 16.99                                                             
C 28.18  2.32 30.58                                                             
C 28.18  2.32 44.16                                                             
C 28.18  2.32 57.75                                                             
C 12.08 16.27  3.40                                                             
C 12.08 16.27 16.99                                                             
C 12.08 16.27 30.58                                                             
C 12.08 16.27 44.16                                                             
C 12.08 16.27 57.75                                                             
C 16.10 13.95  3.40                                                             
C 16.10 13.95 16.99                                                             
C 16.10 13.95 30.58                                                             
C 16.10 13.95 44.16                                                             
C 16.10 13.95 57.75                                                             
C 20.13 11.62  3.40                                                             
C 20.13 11.62 16.99                                                             
C 20.13 11.62 30.58                                                             
C 20.13 11.62 44.16                                                             
C 20.13 11.62 57.75                                                             
C 24.16  9.30  3.40                                                             
C 24.16  9.30 16.99                                                             
C 24.16  9.30 30.58                                                             
C 24.16  9.30 44.16                                                             
C 24.16  9.30 57.75                                                             
C 28.18  6.97  3.40                                                             
C 28.18  6.97 16.99                                                             
C 28.18  6.97 30.58                                                             
C 28.18  6.97 44.16                                                             
C 28.18  6.97 57.75                                                             
C 20.13 16.27  3.40                                                             
C 20.13 16.27 16.99                                                             
C 20.13 16.27 30.58                                                             
C 20.13 16.27 44.16                                                             
C 20.13 16.27 57.75                                                             
C 24.16 13.95  3.40                                                             
C 24.16 13.95 16.99                                                             
C 24.16 13.95 30.58                                                             
C 24.16 13.95 44.16                                                             
C 24.16 13.95 57.75                                                             
C 28.18 11.62  3.40                                                             
C 28.18 11.62 16.99                                                             
C 28.18 11.62 30.58                                                             
C 28.18 11.62 44.16                                                             
C 28.18 11.62 57.75                                                             
C 28.18 16.27  3.40                                                             
C 28.18 16.27 16.99                                                             
C 28.18 16.27 30.58                                                             
C 28.18 16.27 44.16                                                             
C 28.18 16.27 57.75                                                             
C  0.00  0.00 10.19                                                             
C  0.00  0.00 23.78                                                             
C  0.00  0.00 37.37                                                             
C  0.00  0.00 50.96                                                             
C  0.00  0.00 64.55                                                             
C  0.00  4.65 10.19                                                             
C  0.00  4.65 23.78                                                             
C  0.00  4.65 37.37                                                             
C  0.00  4.65 50.96                                                             
C  0.00  4.65 64.55                                                             
C  4.03  2.32 10.19                                                             
C  4.03  2.32 23.78                                                             
C  4.03  2.32 37.37                                                             
C  4.03  2.32 50.96                                                             
C  4.03  2.32 64.55                                                             
C  8.05  0.00 10.19                                                             
C  8.05  0.00 23.78                                                             
C  8.05  0.00 37.37                                                             
C  8.05  0.00 50.96                                                             
C  8.05  0.00 64.55                                                             
C  0.00  9.30 10.19                                                             
C  0.00  9.30 23.78                                                             
C  0.00  9.30 37.37                                                             
C  0.00  9.30 50.96                                                             
C  0.00  9.30 64.55                                                             
C  4.03  6.97 10.19                                                             
C  4.03  6.97 23.78                                                             
C  4.03  6.97 37.37                                                             
C  4.03  6.97 50.96                                                             
C  4.03  6.97 64.55                                                             
C  8.05  4.65 10.19                                                             
C  8.05  4.65 23.78                                                             
C  8.05  4.65 37.37                                                             
C  8.05  4.65 50.96                                                             
C  8.05  4.65 64.55                                                             
C 12.08  2.32 10.19                                                             
C 12.08  2.32 23.78                                                             
C 12.08  2.32 37.37                                                             
C 12.08  2.32 50.96                                                             
C 12.08  2.32 64.55                                                             
C 16.10  0.00 10.19                                                             
C 16.10  0.00 23.78                                                             
C 16.10  0.00 37.37                                                             
C 16.10  0.00 50.96                                                             
C 16.10  0.00 64.55                                                             
C  0.00 13.95 10.19                                                             
C  0.00 13.95 23.78                                                             
C  0.00 13.95 37.37                                                             
C  0.00 13.95 50.96                                                             
C  0.00 13.95 64.55                                                             
C  4.03 11.62 10.19                                                             
C  4.03 11.62 23.78                                                             
C  4.03 11.62 37.37                                                             
C  4.03 11.62 50.96                                                             
C  4.03 11.62 64.55                                                             
C  8.05  9.30 10.19                                                             
C  8.05  9.30 23.78                                                             
C  8.05  9.30 37.37                                                             
C  8.05  9.30 50.96                                                             
C  8.05  9.30 64.55                                                             
C 12.08  6.97 10.19                                                             
C 12.08  6.97 23.78                                                             
C 12.08  6.97 37.37                                                             
C 12.08  6.97 50.96                                                             
C 12.08  6.97 64.55                                                             
C 16.10  4.65 10.19                                                             
C 16.10  4.65 23.78                                                             
C 16.10  4.65 37.37                                                             
C 16.10  4.65 50.96                                                             
C 16.10  4.65 64.55                                                             
C 20.13  2.32 10.19                                                             
C 20.13  2.32 23.78                                                             
C 20.13  2.32 37.37                                                             
C 20.13  2.32 50.96                                                             
C 20.13  2.32 64.55                                                             
C 24.16  0.00 10.19                                                             
C 24.16  0.00 23.78                                                             
C 24.16  0.00 37.37                                                             
C 24.16  0.00 50.96                                                             
C 24.16  0.00 64.55                                                             
C  4.03 16.27 10.19                                                             
C  4.03 16.27 23.78                                                             
C  4.03 16.27 37.37                                                             
C  4.03 16.27 50.96                                                             
C  4.03 16.27 64.55                                                             
C  8.05 13.95 10.19                                                             
C  8.05 13.95 23.78                                                             
C  8.05 13.95 37.37                                                             
C  8.05 13.95 50.96                                                             
C  8.05 13.95 64.55                                                             
C 12.08 11.62 10.19                                                             
C 12.08 11.62 23.78                                                             
C 12.08 11.62 37.37                                                             
C 12.08 11.62 50.96                                                             
C 12.08 11.62 64.55                                                             
C 16.10  9.30 10.19                                                             
C 16.10  9.30 23.78                                                             
C 16.10  9.30 37.37                                                             
C 16.10  9.30 50.96                                                             
C 16.10  9.30 64.55                                                             
C 20.13  6.97 10.19                                                             
C 20.13  6.97 23.78                                                             
C 20.13  6.97 37.37                                                             
C 20.13  6.97 50.96                                                             
C 20.13  6.97 64.55                                                             
C 24.16  4.65 10.19                                                             
C 24.16  4.65 23.78                                                             
C 24.16  4.65 37.37                                                             
C 24.16  4.65 50.96                                                             
C 24.16  4.65 64.55                                                             
C 28.18  2.32 10.19                                                             
C 28.18  2.32 23.78                                                             
C 28.18  2.32 37.37                                                             
C 28.18  2.32 50.96                                                             
C 28.18  2.32 64.55                                                             
C 12.08 16.27 10.19                                                             
C 12.08 16.27 23.78                                                             
C 12.08 16.27 37.37                                                             
C 12.08 16.27 50.96                                                             
C 12.08 16.27 64.55                                                             
C 16.10 13.95 10.19                                                             
C 16.10 13.95 23.78                                                             
C 16.10 13.95 37.37                                                             
C 16.10 13.95 50.96                                                             
C 16.10 13.95 64.55                                                             
C 20.13 11.62 10.19                                                             
C 20.13 11.62 23.78                                                             
C 20.13 11.62 37.37                                                             
C 20.13 11.62 50.96                                                             
C 20.13 11.62 64.55                                                             
C 24.16  9.30 10.19                                                             
C 24.16  9.30 23.78                                                             
C 24.16  9.30 37.37                                                             
C 24.16  9.30 50.96                                                             
C 24.16  9.30 64.55                                                             
C 28.18  6.97 10.19                                                             
C 28.18  6.97 23.78                                                             
C 28.18  6.97 37.37                                                             
C 28.18  6.97 50.96                                                             
C 28.18  6.97 64.55                                                             
C 20.13 16.27 10.19                                                             
C 20.13 16.27 23.78                                                             
C 20.13 16.27 37.37                                                             
C 20.13 16.27 50.96                                                             
C 20.13 16.27 64.55                                                             
C 24.16 13.95 10.19                                                             
C 24.16 13.95 23.78                                                             
C 24.16 13.95 37.37                                                             
C 24.16 13.95 50.96                                                             
C 24.16 13.95 64.55                                                             
C 28.18 11.62 10.19                                                             
C 28.18 11.62 23.78                                                             
C 28.18 11.62 37.37                                                             
C 28.18 11.62 50.96                                                             
C 28.18 11.62 64.55                                                             
C 28.18 16.27 10.19                                                             
C 28.18 16.27 23.78                                                             
C 28.18 16.27 37.37                                                             
C 28.18 16.27 50.96                                                             
C 28.18 16.27 64.55                                                             
C  1.34  2.32  3.40                                                             
C  1.34  2.32 16.99                                                             
C  1.34  2.32 30.58                                                             
C  1.34  2.32 44.16                                                             
C  1.34  2.32 57.75                                                             
C  5.37  0.00  3.40                                                             
C  5.37  0.00 16.99                                                             
C  5.37  0.00 30.58                                                             
C  5.37  0.00 44.16                                                             
C  5.37  0.00 57.75                                                             
C  1.34  6.97  3.40                                                             
C  1.34  6.97 16.99                                                             
C  1.34  6.97 30.58                                                             
C  1.34  6.97 44.16                                                             
C  1.34  6.97 57.75                                                             
C  5.37  4.65  3.40                                                             
C  5.37  4.65 16.99                                                             
C  5.37  4.65 30.58                                                             
C  5.37  4.65 44.16                                                             
C  5.37  4.65 57.75                                                             
C  9.39  2.32  3.40                                                             
C  9.39  2.32 16.99                                                             
C  9.39  2.32 30.58                                                             
C  9.39  2.32 44.16                                                             
C  9.39  2.32 57.75                                                             
C 13.42  0.00  3.40                                                             
C 13.42  0.00 16.99                                                             
C 13.42  0.00 30.58                                                             
C 13.42  0.00 44.16                                                             
C 13.42  0.00 57.75                                                             
C  1.34 11.62  3.40                                                             
C  1.34 11.62 16.99                                                             
C  1.34 11.62 30.58                                                             
C  1.34 11.62 44.16                                                             
C  1.34 11.62 57.75                                                             
C  5.37  9.30  3.40                                                             
C  5.37  9.30 16.99                                                             
C  5.37  9.30 30.58                                                             
C  5.37  9.30 44.16                                                             
C  5.37  9.30 57.75                                                             
C  9.39  6.97  3.40                                                             
C  9.39  6.97 16.99                                                             
C  9.39  6.97 30.58                                                             
C  9.39  6.97 44.16                                                             
C  9.39  6.97 57.75                                                             
C 13.42  4.65  3.40                                                             
C 13.42  4.65 16.99                                                             
C 13.42  4.65 30.58                                                             
C 13.42  4.65 44.16                                                             
C 13.42  4.65 57.75                                                             
C 17.45  2.32  3.40                                                             
C 17.45  2.32 16.99                                                             
C 17.45  2.32 30.58                                                             
C 17.45  2.32 44.16                                                             
C 17.45  2.32 57.75                                                             
C 21.47  0.00  3.40                                                             
C 21.47  0.00 16.99                                                             
C 21.47  0.00 30.58                                                             
C 21.47  0.00 44.16                                                             
C 21.47  0.00 57.75                                                             
C  1.34 16.27  3.40                                                             
C  1.34 16.27 16.99                                                             
C  1.34 16.27 30.58                                                             
C  1.34 16.27 44.16                                                             
C  1.34 16.27 57.75                                                             
C  5.37 13.95  3.40                                                             
C  5.37 13.95 16.99                                                             
C  5.37 13.95 30.58                                                             
C  5.37 13.95 44.16                                                             
C  5.37 13.95 57.75                                                             
C  9.39 11.62  3.40                                                             
C  9.39 11.62 16.99                                                             
C  9.39 11.62 30.58                                                             
C  9.39 11.62 44.16                                                             
C  9.39 11.62 57.75                                                             
C 13.42  9.30  3.40                                                             
C 13.42  9.30 16.99                                                             
C 13.42  9.30 30.58                                                             
C 13.42  9.30 44.16                                                             
C 13.42  9.30 57.75                                                             
C 17.45  6.97  3.40                                                             
C 17.45  6.97 16.99                                                             
C 17.45  6.97 30.58                                                             
C 17.45  6.97 44.16                                                             
C 17.45  6.97 57.75                                                             
C 21.47  4.65  3.40                                                             
C 21.47  4.65 16.99                                                             
C 21.47  4.65 30.58                                                             
C 21.47  4.65 44.16                                                             
C 21.47  4.65 57.75                                                             
C 25.50  2.32  3.40                                                             
C 25.50  2.32 16.99                                                             
C 25.50  2.32 30.58                                                             
C 25.50  2.32 44.16                                                             
C 25.50  2.32 57.75                                                             
C 29.52  0.00  3.40                                                             
C 29.52  0.00 16.99                                                             
C 29.52  0.00 30.58                                                             
C 29.52  0.00 44.16                                                             
C 29.52  0.00 57.75                                                             
C  9.39 16.27  3.40                                                             
C  9.39 16.27 16.99                                                             
C  9.39 16.27 30.58                                                             
C  9.39 16.27 44.16                                                             
C  9.39 16.27 57.75                                                             
C 13.42 13.95  3.40                                                             
C 13.42 13.95 16.99                                                             
C 13.42 13.95 30.58                                                             
C 13.42 13.95 44.16                                                             
C 13.42 13.95 57.75                                                             
C 17.45 11.62  3.40                                                             
C 17.45 11.62 16.99                                                             
C 17.45 11.62 30.58                                                             
C 17.45 11.62 44.16                                                             
C 17.45 11.62 57.75                                                             
C 21.47  9.30  3.40                                                             
C 21.47  9.30 16.99                                                             
C 21.47  9.30 30.58                                                             
C 21.47  9.30 44.16                                                             
C 21.47  9.30 57.75                                                             
C 25.50  6.97  3.40                                                             
C 25.50  6.97 16.99                                                             
C 25.50  6.97 30.58                                                             
C 25.50  6.97 44.16                                                             
C 25.50  6.97 57.75                                                             
C 29.52  4.65  3.40                                                             
C 29.52  4.65 16.99                                                             
C 29.52  4.65 30.58                                                             
C 29.52  4.65 44.16                                                             
C 29.52  4.65 57.75                                                             
C 17.45 16.27  3.40                                                             
C 17.45 16.27 16.99                                                             
C 17.45 16.27 30.58                                                             
C 17.45 16.27 44.16                                                             
C 17.45 16.27 57.75                                                             
C 21.47 13.95  3.40                                                             
C 21.47 13.95 16.99                                                             
C 21.47 13.95 30.58                                                             
C 21.47 13.95 44.16                                                             
C 21.47 13.95 57.75                                                             
C 25.50 11.62  3.40                                                             
C 25.50 11.62 16.99                                                             
C 25.50 11.62 30.58                                                             
C 25.50 11.62 44.16                                                             
C 25.50 11.62 57.75                                                             
C 29.52  9.30  3.40                                                             
C 29.52  9.30 16.99                                                             
C 29.52  9.30 30.58                                                             
C 29.52  9.30 44.16                                                             
C 29.52  9.30 57.75                                                             
C 25.50 16.27  3.40                                                             
C 25.50 16.27 16.99                                                             
C 25.50 16.27 30.58                                                             
C 25.50 16.27 44.16                                                             
C 25.50 16.27 57.75                                                             
C 29.52 13.95  3.40                                                             
C 29.52 13.95 16.99                                                             
C 29.52 13.95 30.58                                                             
C 29.52 13.95 44.16                                                             
C 29.52 13.95 57.75                                                             
C  2.68  0.00 10.19                                                             
C  2.68  0.00 23.78                                                             
C  2.68  0.00 37.37                                                             
C  2.68  0.00 50.96                                                             
C  2.68  0.00 64.55                                                             
C  2.68  4.65 10.19                                                             
C  2.68  4.65 23.78                                                             
C  2.68  4.65 37.37                                                             
C  2.68  4.65 50.96                                                             
C  2.68  4.65 64.55                                                             
C  6.71  2.32 10.19                                                             
C  6.71  2.32 23.78                                                             
C  6.71  2.32 37.37                                                             
C  6.71  2.32 50.96                                                             
C  6.71  2.32 64.55                                                             
C 10.74  0.00 10.19                                                             
C 10.74  0.00 23.78                                                             
C 10.74  0.00 37.37                                                             
C 10.74  0.00 50.96                                                             
C 10.74  0.00 64.55                                                             
C  2.68  9.30 10.19                                                             
C  2.68  9.30 23.78                                                             
C  2.68  9.30 37.37                                                             
C  2.68  9.30 50.96                                                             
C  2.68  9.30 64.55                                                             
C  6.71  6.97 10.19                                                             
C  6.71  6.97 23.78                                                             
C  6.71  6.97 37.37                                                             
C  6.71  6.97 50.96                                                             
C  6.71  6.97 64.55                                                             
C 10.74  4.65 10.19                                                             
C 10.74  4.65 23.78                                                             
C 10.74  4.65 37.37                                                             
C 10.74  4.65 50.96                                                             
C 10.74  4.65 64.55                                                             
C 14.76  2.32 10.19                                                             
C 14.76  2.32 23.78                                                             
C 14.76  2.32 37.37                                                             
C 14.76  2.32 50.96                                                             
C 14.76  2.32 64.55                                                             
C 18.79  0.00 10.19                                                             
C 18.79  0.00 23.78                                                             
C 18.79  0.00 37.37                                                             
C 18.79  0.00 50.96                                                             
C 18.79  0.00 64.55                                                             
C  2.68 13.95 10.19                                                             
C  2.68 13.95 23.78                                                             
C  2.68 13.95 37.37                                                             
C  2.68 13.95 50.96                                                             
C  2.68 13.95 64.55                                                             
C  6.71 11.62 10.19                                                             
C  6.71 11.62 23.78                                                             
C  6.71 11.62 37.37                                                             
C  6.71 11.62 50.96                                                             
C  6.71 11.62 64.55                                                             
C 10.74  9.30 10.19                                                             
C 10.74  9.30 23.78                                                             
C 10.74  9.30 37.37                                                             
C 10.74  9.30 50.96                                                             
C 10.74  9.30 64.55                                                             
C 14.76  6.97 10.19                                                             
C 14.76  6.97 23.78                                                             
C 14.76  6.97 37.37                                                             
C 14.76  6.97 50.96                                                             
C 14.76  6.97 64.55                                                             
C 18.79  4.65 10.19                                                             
C 18.79  4.65 23.78                                                             
C 18.79  4.65 37.37                                                             
C 18.79  4.65 50.96                                                             
C 18.79  4.65 64.55                                                             
C 22.81  2.32 10.19                                                             
C 22.81  2.32 23.78                                                             
C 22.81  2.32 37.37                                                             
C 22.81  2.32 50.96                                                             
C 22.81  2.32 64.55                                                             
C 26.84  0.00 10.19                                                             
C 26.84  0.00 23.78                                                             
C 26.84  0.00 37.37                                                             
C 26.84  0.00 50.96                                                             
C 26.84  0.00 64.55                                                             
C  6.71 16.27 10.19                                                             
C  6.71 16.27 23.78                                                             
C  6.71 16.27 37.37                                                             
C  6.71 16.27 50.96                                                             
C  6.71 16.27 64.55                                                             
C 10.74 13.95 10.19                                                             
C 10.74 13.95 23.78                                                             
C 10.74 13.95 37.37                                                             
C 10.74 13.95 50.96                                                             
C 10.74 13.95 64.55                                                             
C 14.76 11.62 10.19                                                             
C 14.76 11.62 23.78                                                             
C 14.76 11.62 37.37                                                             
C 14.76 11.62 50.96                                                             
C 14.76 11.62 64.55                                                             
C 18.79  9.30 10.19                                                             
C 18.79  9.30 23.78                                                             
C 18.79  9.30 37.37                                                             
C 18.79  9.30 50.96                                                             
C 18.79  9.30 64.55                                                             
C 22.81  6.97 10.19                                                             
C 22.81  6.97 23.78                                                             
C 22.81  6.97 37.37                                                             
C 22.81  6.97 50.96                                                             
C 22.81  6.97 64.55                                                             
C 26.84  4.65 10.19                                                             
C 26.84  4.65 23.78                                                             
C 26.84  4.65 37.37                                                             
C 26.84  4.65 50.96                                                             
C 26.84  4.65 64.55                                                             
C 30.86  2.32 10.19                                                             
C 30.86  2.32 23.78                                                             
C 30.86  2.32 37.37                                                             
C 30.86  2.32 50.96                                                             
C 30.86  2.32 64.55                                                             
C 14.76 16.27 10.19                                                             
C 14.76 16.27 23.78                                                             
C 14.76 16.27 37.37                                                             
C 14.76 16.27 50.96                                                             
C 14.76 16.27 64.55                                                             
C 18.79 13.95 10.19                                                             
C 18.79 13.95 23.78                                                             
C 18.79 13.95 37.37                                                             
C 18.79 13.95 50.96                                                             
C 18.79 13.95 64.55                                                             
C 22.81 11.62 10.19                                                             
C 22.81 11.62 23.78                                                             
C 22.81 11.62 37.37                                                             
C 22.81 11.62 50.96                                                             
C 22.81 11.62 64.55                                                             
C 26.84  9.30 10.19                                                             
C 26.84  9.30 23.78                                                             
C 26.84  9.30 37.37                                                             
C 26.84  9.30 50.96                                                             
C 26.84  9.30 64.55                                                             
C 30.86  6.97 10.19                                                             
C 30.86  6.97 23.78                                                             
C 30.86  6.97 37.37                                                             
C 30.86  6.97 50.96                                                             
C 30.86  6.97 64.55                                                             
C 22.81 16.27 10.19                                                             
C 22.81 16.27 23.78                                                             
C 22.81 16.27 37.37                                                             
C 22.81 16.27 50.96                                                             
C 22.81 16.27 64.55                                                             
C 26.84 13.95 10.19                                                             
C 26.84 13.95 23.78                                                             
C 26.84 13.95 37.37                                                             
C 26.84 13.95 50.96                                                             
C 26.84 13.95 64.55                                                             
C 30.86 11.62 10.19                                                             
C 30.86 11.62 23.78                                                             
C 30.86 11.62 37.37                                                             
C 30.86 11.62 50.96                                                             
C 30.86 11.62 64.55                                                             
C 30.86 16.27 10.19                                                             
C 30.86 16.27 23.78                                                             
C 30.86 16.27 37.37                                                             
C 30.86 16.27 50.96                                                             
C 30.86 16.27 64.55                                                             
%ENDBLOCK POSITIONS_ABS                                                         

--------------------------------------------------------------------------------
-------------------------------- END INPUT FILE --------------------------------
--------------------------------------------------------------------------------


 
<<<<<<<<<<<<<<<<<<<<<<<<<<<<<<<<< Full system >>>>>>>>>>>>>>>>>>>>>>>>>>>>>>>>>>
<<<<<<<<<<<<<<<<<<<<<<<<<<< PAW Dataset information >>>>>>>>>>>>>>>>>>>>>>>>>>>
File: ~/pp/paw/c_pbe_abinit.paw; rc = 1.25 bohr; shape type =  3; rshape = 1.25 bohr;
  Atomic number:  6;  ionic charge:  4.000000
    Partial Wave 1: l = 0
    Partial Wave 2: l = 0
    Partial Wave 3: l = 1
    Partial Wave 4: l = 1
  Core charge supplied for Nonlinear Core Corrections
<<<<<<<<<<<<<<<<<<<<<<<<<<<<<<<<<<<<<<< >>>>>>>>>>>>>>>>>>>>>>>>>>>>>>>>>>>>>>>

-------------------------- Atom counting information ---------------------------
Symbol    Natoms    Nngwfs    Nprojs
  C        640      2560      5120
.......   ......    ......    ......
Totals:    640      2560      5120
--------------------------------------------------------------------------------

=============================== PSINC grid sizes ===============================
                      Simulation cell:   63 x  35 x 134
                              FFT-box:   63 x  35 x 117
                                  PPD:    7 x   5 x   1
Grid space d1=  0.511269841270a0 (KE cutoff=  29.06054Eh = 790.77748eV)
Grid space d2=  0.531142857143a0 (KE cutoff=  26.92659Eh = 732.70972eV)
Grid space d3=  0.507014925373a0 (KE cutoff=  29.55034Eh = 804.10572eV)
================================================================================
  
WARNING in cell_grid_distribute:
Average of less than one 23-slab per node, so workload cannot be
equally balanced between nodes.

********************* Fourier parallelisation information **********************
       Coarse grid (whole simulation cell) dimensions:     63    35   134
          Real-space ('12') slabs/node (min max mean):      3     4     3
         Recip-space ('23') slabs/node (min max mean):      0     1     0
********************************************************************************

********************* Fourier parallelisation information **********************
       Double grid (whole simulation cell) dimensions:    126    70   268
          Real-space ('12') slabs/node (min max mean):      6     7     6
         Recip-space ('23') slabs/node (min max mean):      1     2     1
********************************************************************************

Atom SCF Calculation for C  : Z (AE atom) =   6 : Z (PS atom) =   4
Config String: 2s2 2p2
Orbitals (num,occ):  2     2.00 2.00
Orbitals   (num,l):  2        0    1
Real-space Grid (nr,dr,rmax): 1293    0.0069659443    9.0000000000
Spherical Bessel Basis (nsws,lmax,cutoff):   37    2  161.4736382572
Confining potential (l,width,scale):  0    3.0000000000  100.0000000000
Confining potential (l,width,scale):  1    3.0000000000  100.0000000000
  1         -5.4468762137   -1.3311033486    4.5135257941   -1.6400141247
  2         -5.4563922850   -1.3925089082    4.4492606193   -1.6178955363
  3         -5.4591606672   -1.4162756486    4.4239316220   -1.6104942496
  4         -5.4639338613   -1.4240698331    4.4156521757   -1.6083566999
  5         -5.4657436445   -1.4272842389    4.4122438165   -1.6075116305
  6         -5.4665049591   -1.4285796230    4.4108740217   -1.6071800157
  7         -5.4668137280   -1.4291083664    4.4103163978   -1.6070462938
  8         -5.4669397753   -1.4293243321    4.4100892688   -1.6069921003
  9         -5.4669910134   -1.4294128082    4.4099964732   -1.6069700140
 10         -5.4670118707   -1.4294491026    4.4099585094   -1.6069609935
 11         -5.4670203648   -1.4294640137    4.4099429536   -1.6069573023
 12         -5.4670238269   -1.4294701480    4.4099365706   -1.6069557895
 13         -5.4670252393   -1.4294726750    4.4099339478   -1.6069551687
 14         -5.4670258160   -1.4294737172    4.4099328686   -1.6069549136
 15         -5.4670260518   -1.4294741476    4.4099324241   -1.6069548086
 16         -5.4670261483   -1.4294743256    4.4099322407   -1.6069547654
Atom SCF converged after  16 iterations to a total energy of     -5.46702615

Determining parallel strategy ...
... using space-filling curve
... NGWF load balancing: max     64;  min     64;  average     64
... Projector load balancing: max    128;  min    128;  average    128
... done
Calculating Ewald energy ...
              Ewald: real-space energy =    9483.351908
        Ewald: reciprocal-space energy =       0.212599
         Ewald: (sum_charge)**2 Energy =   11055.830996
         Ewald: (sum_charge**2) Energy =     874.040184
                          Ewald Energy =   -2446.306672
Basis initialisation ...... NGWF spheres initialised
... Projector spheres initialised
... NGWF tight boxes initialised
... Projector tight boxes initialised
... Tight-boxes gathered
... NGWF basis size (local,global):     693332  27908448
... PAW projector initialisation
... done

============================= Charge Augmentation ==============================
                           Aug box size:   11 x  11 x  11
================================================================================

========================== Sparse matrix information ===========================
                        Overlap matrix filling:  42.19%
                        Density kernel filling: 100.00%
              NGWF-Proj overlap matrix filling:  12.19%
                    Aug Overlap matrix filling:  47.03%
                    Hamiltonian matrix filling:  47.03%
                  NGWF diagonal matrix filling:   0.16%
                             KS matrix filling: 100.00% 
                           KSKS matrix filling: 100.00% 
================================================================================

Sparse matrix initialisation ... done
NGWF initialisation ...... done
============ Calculation of NGWF S^-1 using Hotelling algorithm ================ 
         Iteration  |  Frobenius norm and Maximum abs value    (of I-S*S_n^-1)   
               1       0.49006821E+02     0.97531916E+00
               2       0.47741366E+02     0.95247412E+00
               3       0.45850938E+02     0.91140903E+00
               4       0.43411541E+02     0.84332514E+00
               5       0.40502332E+02     0.74246271E+00
               6       0.37145374E+02     0.67511217E+00
               7       0.33683723E+02     0.62809232E+00
               8       0.30384424E+02     0.58868989E+00
               9       0.26816159E+02     0.54451899E+00
              10       0.22275042E+02     0.47440918E+00
              11       0.16366949E+02     0.36348287E+00
              12       0.96145618E+01     0.21860999E+00
              13       0.38086474E+01     0.84567860E-01
              14       0.71435153E+00     0.14561035E-01
              15       0.29760286E-01     0.52942133E-03
              16       0.65795130E-04     0.89270588E-06
              17       0.48610171E-09     0.40342174E-11
              18       0.71066641E-13     0.33306691E-14
================================================================================
Calculating core density ...
================================= Core Density =================================
               Core den box size:   21 x  21 x  21
================================================================================
 ... done
Up spin density kernel initialisation ...... done

Writing density kernel to file "3.5954808_GO_manual_4x64graphite.dkn" ... done

>>> Optimising kernel for current NGWFs:

--------------------------- Ensemble-DFT optimisation --------------------------
Running ScaLAPACK on   40 processor(s).

--------------------------------------------------------------------------------
  Iter                              Commutator    Free_energy(A=E-TS)     DeltaA
#    0                          0.000037345029   -3651.22546360616479  -3.65E+03

Step                       =       0.381966011250
Energy                     =   -3651.225434333387
Entropy (-TS)              =      -0.000029272930
Free energy (A=E-TS)       =   -3651.225463606165
Est. 0K Energy 0.5*(E+A)   =   -3651.225448969776
Residual Non-orthogonality =       0.000000000000
Residual N_electrons       =       0.000000000152

Spin          Integrated_Ne            Fermi_level     Delta_Fermi_level
   1      2559.999999999139         0.176808031297              1.77E-01

                           Spin 1          
     Orb      H-eigenvalues     Occupancies
       1 |    -0.5445200044    1.0000000000 | 
                          ------
    1276 |     0.1423238056    0.9999813428 | 
    1277 |     0.1429341119    0.9999773774 | 
    1278 |     0.1429475815    0.9999772810 | 
    1279 |     0.1432194720    0.9999752443 | 
    1280 |     0.1438418310    0.9999698683 | 
                 - Gap at zero temperature -
    1281 |     0.2123515961    0.0000133528 | 
    1282 |     0.2123693639    0.0000132781 | 
    1283 |     0.2123856110    0.0000132102 | 
    1284 |     0.2125523917    0.0000125324 | 
    1285 |     0.2125703249    0.0000124617 | 
                          ------
    2560 |     1.0068526219    0.0000000000 | 

                       |  Abs_value |  Threshold | Converged
     Delta_Free_energy |   3.65E+03 |   1.00E-06 |        No
     Delta_Energy      |   3.65E+03 |   1.00E-04 |        No
     Delta_Entropy     |   2.93E-05 |   1.00E-04 |       Yes
     Commutator        |   3.73E-05 |   1.00E-05 |        No
     Delta_Fermi_level |   1.77E-01 |   1.00E-03 |        No

  Line search of the free energy minimum:
  Step_type        Step             Free_energy   Predicted_free_energy
.   Initial    0.000000    -3651.22546360616479
.    Trial1    0.381966    -3651.22696548538670
.    Trial2    0.618034    -3651.22724267366266
. Quadratic    0.631571    -3651.22724355122955    -3651.22724349135979

--------------------------------------------------------------------------------
  Iter                              Commutator    Free_energy(A=E-TS)     DeltaA
#    1                          0.000020823019   -3651.22724355122955  -1.78E-03

Step                       =       0.631570987837
Energy                     =   -3651.227214458520
Entropy (-TS)              =      -0.000029093007
Free energy (A=E-TS)       =   -3651.227243551230
Est. 0K Energy 0.5*(E+A)   =   -3651.227229004875
Residual Non-orthogonality =       0.000000000000
Residual N_electrons       =       0.000000000298

Spin          Integrated_Ne            Fermi_level     Delta_Fermi_level
   1      2559.999999998308         0.176213529758             -5.95E-04

                           Spin 1          
     Orb      H-eigenvalues     Occupancies
       1 |    -0.5471663854    1.0000000000 | 
                          ------
    1276 |     0.1417946748    0.9999809536 | 
    1277 |     0.1422332861    0.9999781243 | 
    1278 |     0.1422554229    0.9999779709 | 
    1279 |     0.1426856767    0.9999747651 | 
    1280 |     0.1431448896    0.9999708274 | 
                 - Gap at zero temperature -
    1281 |     0.2117111784    0.0000135478 | 
    1282 |     0.2117481092    0.0000133907 | 
    1283 |     0.2117544704    0.0000133639 | 
    1284 |     0.2119090586    0.0000127272 | 
    1285 |     0.2119393170    0.0000126062 | 
                          ------
    2560 |     1.0052551595    0.0000000000 | 

                       |  Abs_value |  Threshold | Converged
     Delta_Free_energy |   1.78E-03 |   1.00E-06 |        No
     Delta_Energy      |   1.78E-03 |   1.00E-04 |        No
     Delta_Entropy     |   1.80E-07 |   1.00E-04 |       Yes
     Commutator        |   2.08E-05 |   1.00E-05 |        No
     Delta_Fermi_level |   5.95E-04 |   1.00E-03 |       Yes

  Line search of the free energy minimum:
  Step_type        Step             Free_energy   Predicted_free_energy
.   Initial    0.000000    -3651.22724355122955
.    Trial1    0.631571    -3651.22667076820107
.    Trial2    0.241239    -3651.22763734617774
. Quadratic    0.246082    -3651.22763749092428    -3651.22763749875321

--------------------------------------------------------------------------------
  Iter                              Commutator    Free_energy(A=E-TS)     DeltaA
#    2                          0.000010660603   -3651.22763749092428  -3.94E-04

Step                       =       0.246081513661
Energy                     =   -3651.227608445234
Entropy (-TS)              =      -0.000029045919
Free energy (A=E-TS)       =   -3651.227637490924
Est. 0K Energy 0.5*(E+A)   =   -3651.227622968079
Residual Non-orthogonality =       0.000000000000
Residual N_electrons       =       0.000000000229

Spin          Integrated_Ne            Fermi_level     Delta_Fermi_level
   1      2559.999999998702         0.176126206310             -8.73E-05

                           Spin 1          
     Orb      H-eigenvalues     Occupancies
       1 |    -0.5475485017    1.0000000000 | 
                          ------
    1276 |     0.1416685633    0.9999811855 | 
    1277 |     0.1421647078    0.9999779944 | 
    1278 |     0.1421864156    0.9999778431 | 
    1279 |     0.1425575652    0.9999750881 | 
    1280 |     0.1430739057    0.9999706765 | 
                 - Gap at zero temperature -
    1281 |     0.2116500135    0.0000134364 | 
    1282 |     0.2116863322    0.0000132832 | 
    1283 |     0.2116913904    0.0000132620 | 
    1284 |     0.2118526569    0.0000126035 | 
    1285 |     0.2118828162    0.0000124841 | 
                          ------
    2560 |     1.0050172027    0.0000000000 | 

                       |  Abs_value |  Threshold | Converged
     Delta_Free_energy |   3.94E-04 |   1.00E-06 |        No
     Delta_Energy      |   3.94E-04 |   1.00E-04 |        No
     Delta_Entropy     |   4.71E-08 |   1.00E-04 |       Yes
     Commutator        |   1.07E-05 |   1.00E-05 |        No
     Delta_Fermi_level |   8.73E-05 |   1.00E-03 |       Yes

  Line search of the free energy minimum:
  Step_type        Step             Free_energy   Predicted_free_energy
.   Initial    0.000000    -3651.22763749092428
.    Trial1    0.246082    -3651.22773120876536
.    Trial2    0.534053    -3651.22773177376075
. Quadratic    0.391450    -3651.22774618992298    -3651.22774620063956

--------------------------------------------------------------------------------
  Iter                              Commutator    Free_energy(A=E-TS)     DeltaA
#    3                          0.000007243522   -3651.22774618992298  -1.09E-04

Step                       =       0.391449901750
Energy                     =   -3651.227717198679
Entropy (-TS)              =      -0.000028991331
Free energy (A=E-TS)       =   -3651.227746189923
Est. 0K Energy 0.5*(E+A)   =   -3651.227731694301
Residual Non-orthogonality =       0.000000000000
Residual N_electrons       =       0.000000000087

Spin          Integrated_Ne            Fermi_level     Delta_Fermi_level
   1      2559.999999999507         0.176020830972             -1.05E-04

                           Spin 1          
     Orb      H-eigenvalues     Occupancies
       1 |    -0.5479976084    1.0000000000 | 
                          ------
    1276 |     0.1415401607    0.9999813218 | 
    1277 |     0.1420631577    0.9999779678 | 
    1278 |     0.1420843924    0.9999778196 | 
    1279 |     0.1424278302    0.9999752790 | 
    1280 |     0.1429705698    0.9999706576 | 
                 - Gap at zero temperature -
    1281 |     0.2115606589    0.0000133686 | 
    1282 |     0.2115963059    0.0000132189 | 
    1283 |     0.2116007133    0.0000132006 | 
    1284 |     0.2117659766    0.0000125293 | 
    1285 |     0.2117958957    0.0000124115 | 
                          ------
    2560 |     1.0047535590    0.0000000000 | 

                       |  Abs_value |  Threshold | Converged
     Delta_Free_energy |   1.09E-04 |   1.00E-06 |        No
     Delta_Energy      |   1.09E-04 |   1.00E-04 |        No
     Delta_Entropy     |   5.46E-08 |   1.00E-04 |       Yes
     Commutator        |   7.24E-06 |   1.00E-05 |       Yes
     Delta_Fermi_level |   1.05E-04 |   1.00E-03 |       Yes

  Line search of the free energy minimum:
  Step_type        Step             Free_energy   Predicted_free_energy
.   Initial    0.000000    -3651.22774618992298
.    Trial1    0.391450    -3651.22777868955473
.    Trial2    0.623895    -3651.22770131156312
. Quadratic    0.257996    -3651.22779057169464    -3651.22779056233412

--------------------------------------------------------------------------------
  Iter                              Commutator    Free_energy(A=E-TS)     DeltaA
#    4                          0.000004647419   -3651.22779057169464  -4.44E-05

Step                       =       0.257995720387
Energy                     =   -3651.227761601352
Entropy (-TS)              =      -0.000028970616
Free energy (A=E-TS)       =   -3651.227790571695
Est. 0K Energy 0.5*(E+A)   =   -3651.227776086523
Residual Non-orthogonality =       0.000000000000
Residual N_electrons       =       0.000000000273

Spin          Integrated_Ne            Fermi_level     Delta_Fermi_level
   1      2559.999999998448         0.175978808815             -4.20E-05

                           Spin 1          
[...]
 C   160 -- C   385       -0.09      5.37000
 C   159 -- C   384       -0.09      5.37000
 C   158 -- C   383       -0.09      5.37000
 C   157 -- C   382       -0.09      5.37000
 C   156 -- C   381       -0.09      5.37000
 C   155 -- C   355       -0.09      5.37000
 C   154 -- C   354       -0.09      5.37000
 C   153 -- C   353       -0.09      5.37000
 C   152 -- C   352       -0.09      5.37000
 C   151 -- C   351       -0.09      5.37000
 C   140 -- C   335       -0.09      5.37000
 C   139 -- C   334       -0.09      5.37000
 C   138 -- C   333       -0.09      5.37000
 C   137 -- C   332       -0.09      5.37000
 C   136 -- C   331       -0.09      5.37000
 C   115 -- C   325       -0.09      5.37000
 C   114 -- C   324       -0.09      5.37000
 C   113 -- C   323       -0.09      5.37000
 C   112 -- C   322       -0.09      5.37000
 C   111 -- C   321       -0.09      5.37000
 C   219 -- C   569       -0.09      5.37202
 C   218 -- C   568       -0.09      5.37202
 C   217 -- C   567       -0.09      5.37202
 C   216 -- C   566       -0.09      5.37202
 C   250 -- C   540       -0.09      5.37202
 C   249 -- C   539       -0.09      5.37202
 C   248 -- C   538       -0.09      5.37202
 C   247 -- C   537       -0.09      5.37202
 C   246 -- C   536       -0.09      5.37202
 C   220 -- C   570       -0.09      5.37202
 C   285 -- C   580       -0.09      5.37202
 C   284 -- C   579       -0.09      5.37202
 C   283 -- C   578       -0.09      5.37202
 C   282 -- C   577       -0.09      5.37202
 C   281 -- C   576       -0.09      5.37202
 C   260 -- C   605       -0.09      5.37202
 C   259 -- C   604       -0.09      5.37202
 C   258 -- C   603       -0.09      5.37202
 C   257 -- C   602       -0.09      5.37202
 C   256 -- C   601       -0.09      5.37202
 C   220 -- C   515       -0.09      5.37202
 C   219 -- C   514       -0.09      5.37202
 C   218 -- C   513       -0.09      5.37202
 C   217 -- C   512       -0.09      5.37202
 C   216 -- C   511       -0.09      5.37202
 C   195 -- C   540       -0.09      5.37202
 C   195 -- C   500       -0.09      5.37202
 C   194 -- C   539       -0.09      5.37202
 C   194 -- C   499       -0.09      5.37202
 C   193 -- C   538       -0.09      5.37202
 C   193 -- C   498       -0.09      5.37202
 C   192 -- C   537       -0.09      5.37202
 C   192 -- C   497       -0.09      5.37202
 C   191 -- C   536       -0.09      5.37202
 C   191 -- C   496       -0.09      5.37202
 C   180 -- C   515       -0.09      5.37202
 C   179 -- C   514       -0.09      5.37202
 C   178 -- C   513       -0.09      5.37202
 C   177 -- C   512       -0.09      5.37202
 C   176 -- C   511       -0.09      5.37202
 C    11 -- C   331       -0.09      5.37202
 C   205 -- C   550       -0.09      5.37202
 C   204 -- C   549       -0.09      5.37202
 C   203 -- C   548       -0.09      5.37202
 C   202 -- C   547       -0.09      5.37202
 C   201 -- C   546       -0.09      5.37202
 C    95 -- C   425       -0.09      5.37202
 C    95 -- C   365       -0.09      5.37202
 C    94 -- C   424       -0.09      5.37202
 C    94 -- C   364       -0.09      5.37202
 C    93 -- C   423       -0.09      5.37202
 C    93 -- C   363       -0.09      5.37202
 C    92 -- C   422       -0.09      5.37202
 C    92 -- C   362       -0.09      5.37202
 C    91 -- C   421       -0.09      5.37202
 C    91 -- C   361       -0.09      5.37202
 C    40 -- C   365       -0.09      5.37202
 C    39 -- C   364       -0.09      5.37202
 C    38 -- C   363       -0.09      5.37202
 C    37 -- C   362       -0.09      5.37202
 C    36 -- C   361       -0.09      5.37202
 C    15 -- C   335       -0.09      5.37202
 C    65 -- C   395       -0.09      5.37202
 C    65 -- C   345       -0.09      5.37202
 C    64 -- C   394       -0.09      5.37202
 C    64 -- C   344       -0.09      5.37202
 C    63 -- C   393       -0.09      5.37202
 C    30 -- C   355       -0.09      5.37202
 C    63 -- C   343       -0.09      5.37202
 C    62 -- C   392       -0.09      5.37202
 C    30 -- C   325       -0.09      5.37202
 C    14 -- C   334       -0.09      5.37202
 C    62 -- C   342       -0.09      5.37202
 C    61 -- C   391       -0.09      5.37202
 C    29 -- C   354       -0.09      5.37202
 C    61 -- C   341       -0.09      5.37202
 C    29 -- C   324       -0.09      5.37202
 C   260 -- C   550       -0.09      5.37202
 C   259 -- C   549       -0.09      5.37202
 C    28 -- C   353       -0.09      5.37202
 C   258 -- C   548       -0.09      5.37202
 C   257 -- C   547       -0.09      5.37202
 C   256 -- C   546       -0.09      5.37202
 C    28 -- C   323       -0.09      5.37202
 C    27 -- C   352       -0.09      5.37202
 C    13 -- C   333       -0.09      5.37202
 C    27 -- C   322       -0.09      5.37202
 C   120 -- C   395       -0.09      5.37202
 C    26 -- C   351       -0.09      5.37202
 C   119 -- C   394       -0.09      5.37202
 C   118 -- C   393       -0.09      5.37202
 C    55 -- C   335       -0.09      5.37202
 C   117 -- C   392       -0.09      5.37202
 C    26 -- C   321       -0.09      5.37202
 C   116 -- C   391       -0.09      5.37202
 C    54 -- C   334       -0.09      5.37202
 C    12 -- C   332       -0.09      5.37202
 C    53 -- C   333       -0.09      5.37202
 C   230 -- C   580       -0.09      5.37202
 C   230 -- C   525       -0.09      5.37202
 C   229 -- C   579       -0.09      5.37202
 C   229 -- C   524       -0.09      5.37202
 C   228 -- C   578       -0.09      5.37202
 C    52 -- C   332       -0.09      5.37202
 C   228 -- C   523       -0.09      5.37202
 C   227 -- C   577       -0.09      5.37202
 C   227 -- C   522       -0.09      5.37202
 C   226 -- C   576       -0.09      5.37202
 C   226 -- C   521       -0.09      5.37202
 C    51 -- C   331       -0.09      5.37202
 C    23 -- C   478       -0.09      5.37202
 C    49 -- C   469       -0.09      5.37202
 C    48 -- C   468       -0.09      5.37202
 C    47 -- C   467       -0.09      5.37202
 C    22 -- C   477       -0.09      5.37202
 C    46 -- C   466       -0.09      5.37202
 C    21 -- C   476       -0.09      5.37202
 C    85 -- C   355       -0.09      5.37202
 C    84 -- C   354       -0.09      5.37202
 C    83 -- C   353       -0.09      5.37202
 C    82 -- C   352       -0.09      5.37202
 C    81 -- C   351       -0.09      5.37202
 C    55 -- C   385       -0.09      5.37202
 C    54 -- C   384       -0.09      5.37202
 C    25 -- C   480       -0.09      5.37202
 C    53 -- C   383       -0.09      5.37202
 C    52 -- C   382       -0.09      5.37202
 C    51 -- C   381       -0.09      5.37202
 C    24 -- C   479       -0.09      5.37202
 C    50 -- C   470       -0.09      5.37202
 C    24 -- C   449       -0.09      5.37202
 C     6 -- C   416       -0.09      5.37202
 C    23 -- C   448       -0.09      5.37202
 C    22 -- C   447       -0.09      5.37202
 C    10 -- C   470       -0.09      5.37202
 C     5 -- C   450       -0.09      5.37202
 C    21 -- C   446       -0.09      5.37202
 C    10 -- C   420       -0.09      5.37202
 C     9 -- C   469       -0.09      5.37202
 C     9 -- C   419       -0.09      5.37202
 C     8 -- C   468       -0.09      5.37202
 C     4 -- C   449       -0.09      5.37202
 C   150 -- C   440       -0.09      5.37202
 C   149 -- C   439       -0.09      5.37202
 C   148 -- C   438       -0.09      5.37202
 C   147 -- C   437       -0.09      5.37202
 C     8 -- C   418       -0.09      5.37202
 C   146 -- C   436       -0.09      5.37202
 C     2 -- C   447       -0.09      5.37202
 C   135 -- C   460       -0.09      5.37202
 C     7 -- C   467       -0.09      5.37202
 C   134 -- C   459       -0.09      5.37202
 C   133 -- C   458       -0.09      5.37202
 C   132 -- C   457       -0.09      5.37202
 C   131 -- C   456       -0.09      5.37202
 C     7 -- C   417       -0.09      5.37202
 C     1 -- C   446       -0.09      5.37202
 C     6 -- C   466       -0.09      5.37202
 C    25 -- C   450       -0.09      5.37202
 C     3 -- C   448       -0.09      5.37202
 C   106 -- C   436       -0.09      5.37202
 C   106 -- C   376       -0.09      5.37202
 C    80 -- C   410       -0.09      5.37202
 C    79 -- C   409       -0.09      5.37202
 C    78 -- C   408       -0.09      5.37202
 C    77 -- C   407       -0.09      5.37202
 C    76 -- C   406       -0.09      5.37202
 C   135 -- C   410       -0.09      5.37202
 C   134 -- C   409       -0.09      5.37202
 C   133 -- C   408       -0.09      5.37202
 C   132 -- C   407       -0.09      5.37202
 C   131 -- C   406       -0.09      5.37202
 C   110 -- C   440       -0.09      5.37202
 C   110 -- C   380       -0.09      5.37202
 C   109 -- C   439       -0.09      5.37202
 C   109 -- C   379       -0.09      5.37202
 C   108 -- C   438       -0.09      5.37202
 C   108 -- C   378       -0.09      5.37202
 C   107 -- C   437       -0.09      5.37202
 C   107 -- C   377       -0.09      5.37202
 C   215 -- C   635       -0.09      5.38000
 C   214 -- C   634       -0.09      5.38000
 C   213 -- C   633       -0.09      5.38000
 C   212 -- C   632       -0.09      5.38000
 C   211 -- C   631       -0.09      5.38000
 C   190 -- C   620       -0.09      5.38000
 C   189 -- C   619       -0.09      5.38000
 C   188 -- C   618       -0.09      5.38000
 C   187 -- C   617       -0.09      5.38000
 C   186 -- C   616       -0.09      5.38000
 C   175 -- C   595       -0.09      5.38000
 C   174 -- C   594       -0.09      5.38000
 C   173 -- C   593       -0.09      5.38000
 C   172 -- C   592       -0.09      5.38000
 C   171 -- C   591       -0.09      5.38000
 C   245 -- C   640       -0.09      5.38000
 C   244 -- C   639       -0.09      5.38000
 C   243 -- C   638       -0.09      5.38000
 C   242 -- C   637       -0.09      5.38000
 C   241 -- C   636       -0.09      5.38000
==================================================


=================== Orbital energy and occupancy information ===================

      Total number of orbitals:    2560
        Occupancy sum (kernel):    1280.000000000
   Occupancy sum (eigenvalues):    1280.000000000
                 HOMO-LUMO gap:       0.065206333 Eh
                 Mid-gap level:       0.228549086 Eh

                        Orbital | Energy (Eh) | Occupancy
                            1    -0.492684402   1.0000000
                        .......   ...........   .........
                         1271     0.191061936   0.9999889
                         1272     0.191104812   0.9999887
                         1273     0.191532537   0.9999871
                         1274     0.191575392   0.9999869
                         1275     0.194453605   0.9999675
                         1276     0.194481145   0.9999672
                         1277     0.194919050   0.9999624
                         1278     0.194946627   0.9999620
                         1279     0.195485309   0.9999550
                         1280     0.195945919   0.9999479
                        ....... -- gap at 0K -- .........
                         1281     0.261152252   0.0000219
                         1282     0.261165100   0.0000218
                         1283     0.261401995   0.0000202
                         1284     0.261414784   0.0000201
                         1285     0.261602280   0.0000190
                         1286     0.261619941   0.0000189
                         1287     0.261863696   0.0000175
                         1288     0.261881413   0.0000174
                         1289     0.261954340   0.0000170
                         1290     0.262048617   0.0000164
                        .......   ...........   .........
                         2560     1.116724647   0.0000000

================================================================================

===================== Writing canonical molecular orbitals =====================
| Orbital  Energy (eV)  Norm     |
| HOMO      5.33195977  1.000000 | Writing "3.5954808_GO_manual_4x64graphite_HOMO.cube" ... done
Writing "3.5954808_GO_manual_4x64graphite_HOMO.dx" ... done
| LUMO      7.10631438  1.000000 | Writing "3.5954808_GO_manual_4x64graphite_LUMO.cube" ... done
Writing "3.5954808_GO_manual_4x64graphite_LUMO.dx" ... done
================================================================================
 
===================== Density of States (DOS) calculation ======================
Writing "3.5954808_GO_manual_4x64graphite_DOS.txt" ...  done
================================================================================
 
Writing bands to file "3.5954808_GO_manual_4x64graphite.val_bands" ... done
 
================ Projected Density of States (pDOS) calculation ================
 
Constructing AM resolved functions  ...... done
Writing NGWF plot files in formats: CUBE DX ...  done
 
Performing overlap integrals ...  done
 
Computing pDOS weights ...  done
 
All bands spilling parameter =   3.30 %
Occupancy-weighted spilling parameter =   0.90 %
 
 => Outputting data for OptaDOS <=
 
Writing pDOS weights to file "3.5954808_GO_manual_4x64graphite.val_pdos_bin" ... done
 
Writing band gradients to file "3.5954808_GO_manual_4x64graphite.val_dome_bin" ... done
 
Writing Castep output cell file to "3.5954808_GO_manual_4x64graphite-out.cell" ... done
 
 => Computing Gaussian smeared pDOS <= 
Writing "3.5954808_GO_manual_4x64graphite_PDOS.txt" ...  done
 
 => Computing Occupancy-weighted Gaussian smeared pDOS <= 
Writing "3.5954808_GO_manual_4x64graphite_occ_PDOS.txt" ...  done
  => Band centres: 
 S band centre of group 1:  -14.701074 eV
 P band centre of group 1:   -7.588087 eV
  Band centres done. <=
  => Integrated number of electrons in each AM band: 
 S num electrons of group 1:  574.129307
 P num electrons of group 1: 1962.882552
  Integrated number of electrons done. <=
================================================================================

------------------------------ TIMING INFORMATION ------------------------------
AVERAGE TIME:    3297.505s on     40 node(s)                                    
TOTAL TIME:      3297.506s on     40 node(s)                                    
================= AVERAGE TIMINGS FROM ALL NODES (CUMULATIVE) ==================
|| TAG                                    #calls    cpu time   %total  Gflops ||
|| work_imbalance                       :     1        0.00s   0.000%  ------ ||
|| paw_tcore_hartree_on_grid            :     1        0.00s   0.000%  ------ ||
|| paw_tcore_density                    :     1        0.01s   0.000%  ------ ||
|| paw_sphere_density_on_grid           :     1        0.01s   0.000%  ------ ||
|| sparse_set_to_garbage                :   147        0.02s   0.001%  ------ ||
|| paw_dij_hartree                      :   293        0.04s   0.001%  ------ ||
|| pseudo_make_structure_factor         :     1        0.06s   0.002%  ------ ||
|| basis_extract_function_from_box      :  1664        0.07s   0.002%  ------ ||
|| paw_species_calc_proj_prec_mat       :     1        0.12s   0.004%  ------ ||
|| paw_dataset_init                     :     1        0.15s   0.005%  ------ ||
|| density_init_guess_real              :     1        0.17s   0.005%  ------ ||
|| ngwfs_initialise_from_radial         :     2        0.67s   0.020%  ------ ||
|| restart_kernel_write                 :    14        0.71s   0.022%  ------ ||
|| sparse_init                          :     1        0.91s   0.028%  ------ ||
|| dense_normal_eigensolve              :     1        0.97s   0.029%  ------ ||
|| hartree_on_grid                      :   220        1.54s   0.047%  ------ ||
|| projectors_init_fftbox_recip         :   131        2.60s   0.079%  ------ ||
|| ewald_calculate_energy               :     1        3.18s   0.096%  ------ ||
|| fourier_apply_box_pair               :  2464        4.11s   0.125% 556.362 ||
|| basis_copy_function_to_box           : 20992        4.40s   0.133%  ------ ||
|| augmentation_screen_dij              :   225        4.89s   0.148%  ------ ||
|| sw_init                              :     1        6.68s   0.203%  ------ ||
|| sparse_embed_hotelling_invert_embed  :    25        7.08s   0.215%  ------ ||
|| ngwf_gradient_coeffs                 :    13        9.18s   0.278%  ------ ||
|| sparse_trace                         :  2648       14.79s   0.449%  ------ ||
|| cell_grid_extract_box_real           :  8860       16.30s   0.494%  ------ ||
|| fourier_apply_cell_backward          :  6791       18.12s   0.549%  47.393 ||
|| fourier_apply_cell_forward           :  6352       18.54s   0.562%  43.317 ||
|| cell_grid_deposit_box_real           : 28336       19.80s   0.600%  ------ ||
|| paw_dij_xc                           :   293       19.90s   0.603%  ------ ||
|| aug_nonlocal_mat                     :   280       28.91s   0.877%  ------ ||
|| augmentation_density_on_grid         :   220       37.96s   1.151%  ------ ||
|| density_fftbox_deposit_to_cell       : 14080       41.54s   1.260%  ------ ||
|| hamiltonian_energy_components        :     3       47.36s   1.436%  ------ ||
|| function_ops_brappd_ketppd           :    52       50.74s   1.539%  ------ ||
|| eigenstates_pdos                     :     1       53.16s   1.612%  ------ ||
|| eigenstates_calculate                :     1       57.43s   1.742%  ------ ||
|| projectors_func_ovlp_box             :    26       57.46s   1.742%  ------ ||
|| nlxc_vdw_energy                      :   438       71.36s   2.164%  ------ ||
|| xc_energy_potential                  :   219       75.00s   2.274%  ------ ||
|| integrals_kinetic                    :    25       81.79s   2.480%  ------ ||
|| dense_eigensolve                     :   191       95.95s   2.910%  ------ ||
|| properties_calculate                 :     1      103.85s   3.149%  ------ ||
|| sparse_product                       :  2707      105.88s   3.211%  ------ ||
|| potential_apply_to_ngwf_batch        :   276      107.83s   3.270%  ------ ||
|| restart_ngwfs_tightbox_output        :    12      148.77s   4.512%  ------ ||
|| basis_dot_function_with_box          : 6.672M     181.29s   5.498%  ------ ||
|| fourier_apply_box                    : 66304      206.21s   6.253% 974.738 ||
|| edft_diag_ngwf_ham                   :   190      212.40s   6.441%  ------ ||
|| projectors_gradient_batch            :    52      232.37s   7.047%  ------ ||
|| integrals_locpot_mat_els_batch       :   276      233.79s   7.090%  ------ ||
|| density_fftbox_interpolate_multiply  : 14080      270.92s   8.216%  ------ ||
|| projectors_grad_precond_batch        :    52      324.55s   9.842%  ------ ||
|| integrals_locpot_dbl_grid            :    69      342.86s  10.398%  ------ ||
|| density_batch_interp_deposit         :   880      344.69s  10.453%  ------ ||
|| edft_apply_smearing_operator         :   190      412.64s  12.514%  ------ ||
|| basis_add_function_to_box            : 18.80M     497.34s  15.082%  ------ ||
|| ngwf_gradient_build_batch            :    52      596.73s  18.096%  ------ ||
|| density_batch_row_sums               :   880      673.54s  20.426%  ------ ||
|| ngwf_gradient_batch                  :    52      796.52s  24.155%  ------ ||
|| ngwf_gradient_lnv                    :    13      832.68s  25.252%  ------ ||
|| density_on_dbl_grid                  :   220     1029.13s  31.209%  ------ ||
|| hamiltonian_lhxc_calculate           :   215     1118.84s  33.930%  ------ ||
|| edft_calculate                       :    13     1852.96s  56.193%  ------ ||
|| ngwf_cg_optimise                     :     1     3168.09s  96.075%  ------ ||
|| total_time                           :     1     3297.50s 100.000%  ------ ||
================================================================================
Overhead of generating timer report: 
- 0 ms averaging over threads,
- 5 ms ensuring consistency across MPI ranks,
- 0 ms printing in order.

Job completed: 25-02-2020 16:22 (-0000)

