 +---------------------------------------------------------------+
 |                                                               |
 |        ####### #     # ####### ####### ####### ######         |
 |        #     # ##    # #          #    #       #     #        |
 |        #     # # #   # #          #    #       #     #        |
 |        #     # #  #  # #####      #    #####   ######         |
 |        #     # #   # # #          #    #       #              |
 |        #     # #    ## #          #    #       #              |
 |        ####### #     # #######    #    ####### #              |
 |                                                               |
 |        Linear-Scaling Ab Initio Total Energy Program          |
 |                                                               |
 |          Release for academic collaborators of ODG            |
 |                                             Version 5.3.2.12  |
 |                                                               |
 +---------------------------------------------------------------+
 |                                                               |
 |  Authors:                                                     |
 |  Jacek Dziedzic, Peter D. Haynes, Nicholas D. M. Hine,        |
 |  Arash. A. Mostofi, Mike C. Payne and Chris-Kriton Skylaris   |
 |                                                               |
 |  Contributors:                                                |
 |  J. Aarons, L. Andrinopoulos, P. W. Avraam, R. A. Bell,       |
 |  A. Bhandari, G. A. Bramley, R. J. Charlton, S. J. Clark,     |
 |  R. J. Clements, G. C. Constantinescu, F. Corsetti,           |
 |  N. Corsini, O. Dieguez, S. M. M. Dubois, K. K. B. Duff,      |
 |  J. M. Escartin, A. Greco, H. Helal, Q. O. Hill, L. P. Lee,   |
 |  J.-H. Li, E. B. Linscott, G. Moynihan, D. D. O`Regan,        |
 |  O. K. Okan, M. J. S. Phipps, C. J. Pickard,                  |
 |  J. C. A. Prentice, M. I. J. Probert, L. E. Ratcliff,         |
 |  M. Robinson, A. Ruiz Serrano, J. S. Spencer, E. W. Tait,     |
 |  G. Teobaldi, D. Turban, V. Vitale, K. A. Wilkinson,          |
 |  C. Weber, J. C. Womack, N. Yeung and T. J. Zuehlsdorff       |
 |                                                               |
 |                                   Copyright (c) 2004-2020     |
 |                                                               |
 |  Please cite:                                                 |
 |  "Introducing ONETEP: Linear-scaling density functional       |
 |   simulations on parallel computers".                         |
 |   C.-K. Skylaris, P. D. Haynes, A. A. Mostofi, M. C. Payne.   |
 |   J. Chem. Phys. 122 084119 (2005).                           |
 |                                                               |
 |          in all publications arising from your use of ONETEP. |
 |                                                               |
 +---------------------------------------------------------------+
 |                                                               |
 |   ONETEP is based on developments described in the following  |
 |   publications:                                               |
 |                                                               |
 |  "Nonorthogonal generalized Wannier function pseudopotential  |
 |   plane-wave method".                                         |
 |   C.-K. Skylaris, A. A. Mostofi, P. D. Haynes, O. Dieguez,    |
 |   M. C. Payne.                                                |
 |   Phys. Rev. B 66 035119 (2002).                              |
 |                                                               |
 |  "Preconditioned iterative minimization for linear-scaling    |
 |   electronic structure calculations".                         |
 |   A. A. Mostofi, P. D. Haynes, C.-K. Skylaris, M. C. Payne.   |
 |   J. Chem. Phys. 119(17), pp.8842-8848 (2003).                |
 |                                                               |
 |  "Total-energy calculations on a real space grid with         |
 |   localized functions and a plane-wave basis".                |
 |   A. A. Mostofi, C.-K. Skylaris, P. D. Haynes, M. C. Payne.   |
 |   Comput. Phys. Commun. 147, pp.788-802 (2002).               |
 |                                                               |
 |  "Accurate kinetic energy evaluation in electronic structure  |
 |   calculations with localized functions on real space grids"  |
 |   C.-K. Skylaris, A. A. Mostofi, P. D. Haynes, C. J. Pickard, |
 |   M. C. Payne.                                                |
 |   Comput. Phys. Commun. 140, pp.315-322 (2001).               |
 |                                                               |
 |  "Accurate ionic forces and geometry optimization in linear-  |
 |   scaling density-functional theory with local orbitals"      |
 |   N. D. M. Hine, M. Robinson, P. D. Haynes, C.-K. Skylaris,   |
 |   M. C. Payne, and A. A. Mostofi.                             |
 |   Phys. Rev. B 83 195102 (2011).                              |
 |                                                               |
 +---------------------------------------------------------------+

Job started: 29-02-2020 07:58 (-0000)
 
Reading parameters from file "3.6491432_GO_manual_4x64graphite.dat" ...

WARNING: "cutoff_energy" not specified, but "psinc_spacing" specified.
         Using the latter to set the KE cutoff energy to  732.32021eV,
         thus *overriding* the default.

... done

If your calculation crashes here, before "Checking processes and threads..."
is displayed, then your stack size is insufficient.
If so, use "ulimit -s unlimited" at runtime.
You can disable this check with "check_stack_size F".

Checking processes and threads...
   Determining the default number of threads...
      No default threads set at compilation time: defaulting to 1.
      OpenMP library call suggests 4 threads.
      Hybrid MPI-OpenMP compilation detected.
      Number of MPI processes > 1.
      OMP_NUM_THREADS environment variable present and
      its value matches the one obtained from the OpenMP library call.
      Using this value as default.
      Default threads: 4
      Default applies to threads_max and threads_num_fftboxes.
      Settings in the input file override this default.
   ... done

   Running with 40 MPI processes.
   There are 10 MPI processes running on the same node as the root process.
   Each MPI process is using: 
               1 threads for simulation cell FFTs.
               1 threads for parallel FFT box operations.
               4 threads for loops over batched FFT box operations.
               4 threads in other parallel regions.
... done

Basic input checks...
Resetting ngwf_cg_rotate to TRUE for EDFT calculations
... done

Reading geometry and species blocks from file "3.6491432_GO_manual_4x64graphite.dat" ...
    
  PSINC grid spacing along a1 set to   0.511215680000a0 from input file.
  PSINC grid spacing along a2 set to   0.531284090000a0 from input file.
  PSINC grid spacing along a3 set to   0.507051130000a0 from input file.
  Number of PPD points along a3 set to 1.  This is 
  the default value, it may have been provided also in the input file.
... done
 Writing xyz coordinates to file "3.6491432_GO_manual_4x64graphite.xyz" ... done


--------------------------------------------------------------------------------
---------------------------------- INPUT FILE ----------------------------------
--------------------------------------------------------------------------------

task : singlepoint                                                              
do_properties : true                                                            
dx_format T                                                                     
edft T                                                                          
output_detail VERBOSE                                                           
write_xyz T                                                                     
xc_functional OPTB88                                                            
PSINC_SPACING 0.51121568 0.53128409 0.50705113                                  
paw T                                                                           
pdos_max_l = 2                                                                  
dos_smear  0.1 eV                                                               
popn_calculate T                                                                
PDOS_PSEUDOATOMIC T                                                             
PDOS_REDUCE_SWS F                                                               
PDOS_CONSTRUCT_BASIS F                                                          
PDOS_LOWDIN T                                                                   
PDOS_ORTH_ATOM_BLOCKS F                                                         
PDOS_LCAO_OPTIMIZE F                                                            
pdos_optados_output T                                                           
homo_plot 0                                                                     
lumo_plot 0                                                                     
homo_dens_plot -1                                                               
lumo_dens_plot -1                                                               
%BLOCK SPECIES                                                                  
C C 6 4 9.0                                                                     
%ENDBLOCK SPECIES                                                               
%BLOCK SPECIES_POT                                                              
C "~/pp/paw/c_pbe_abinit.paw"                                                   
%ENDBLOCK SPECIES_POT                                                           
%BLOCK SPECIES_ATOMIC_SET                                                       
C "SOLVE conf=2s2 2p2"                                                          
%ENDBLOCK SPECIES_ATOMIC_SET                                                    
%BLOCK LATTICE_CART                                                             
32.21  0.00  0.00                                                               
0.00 18.59  0.00                                                                
0.00  0.00 68.96                                                                
%ENDBLOCK LATTICE_CART                                                          
%BLOCK POSITIONS_ABS                                                            
C  0.00  0.00  3.45                                                             
C  0.00  0.00 17.24                                                             
C  0.00  0.00 31.03                                                             
C  0.00  0.00 44.82                                                             
C  0.00  0.00 58.62                                                             
C  0.00  4.65  3.45                                                             
C  0.00  4.65 17.24                                                             
C  0.00  4.65 31.03                                                             
C  0.00  4.65 44.82                                                             
C  0.00  4.65 58.62                                                             
C  4.03  2.32  3.45                                                             
C  4.03  2.32 17.24                                                             
C  4.03  2.32 31.03                                                             
C  4.03  2.32 44.82                                                             
C  4.03  2.32 58.62                                                             
C  8.05  0.00  3.45                                                             
C  8.05  0.00 17.24                                                             
C  8.05  0.00 31.03                                                             
C  8.05  0.00 44.82                                                             
C  8.05  0.00 58.62                                                             
C  0.00  9.30  3.45                                                             
C  0.00  9.30 17.24                                                             
C  0.00  9.30 31.03                                                             
C  0.00  9.30 44.82                                                             
C  0.00  9.30 58.62                                                             
C  4.03  6.97  3.45                                                             
C  4.03  6.97 17.24                                                             
C  4.03  6.97 31.03                                                             
C  4.03  6.97 44.82                                                             
C  4.03  6.97 58.62                                                             
C  8.05  4.65  3.45                                                             
C  8.05  4.65 17.24                                                             
C  8.05  4.65 31.03                                                             
C  8.05  4.65 44.82                                                             
C  8.05  4.65 58.62                                                             
C 12.08  2.32  3.45                                                             
C 12.08  2.32 17.24                                                             
C 12.08  2.32 31.03                                                             
C 12.08  2.32 44.82                                                             
C 12.08  2.32 58.62                                                             
C 16.10  0.00  3.45                                                             
C 16.10  0.00 17.24                                                             
C 16.10  0.00 31.03                                                             
C 16.10  0.00 44.82                                                             
C 16.10  0.00 58.62                                                             
C  0.00 13.95  3.45                                                             
C  0.00 13.95 17.24                                                             
C  0.00 13.95 31.03                                                             
C  0.00 13.95 44.82                                                             
C  0.00 13.95 58.62                                                             
C  4.03 11.62  3.45                                                             
C  4.03 11.62 17.24                                                             
C  4.03 11.62 31.03                                                             
C  4.03 11.62 44.82                                                             
C  4.03 11.62 58.62                                                             
C  8.05  9.30  3.45                                                             
C  8.05  9.30 17.24                                                             
C  8.05  9.30 31.03                                                             
C  8.05  9.30 44.82                                                             
C  8.05  9.30 58.62                                                             
C 12.08  6.97  3.45                                                             
C 12.08  6.97 17.24                                                             
C 12.08  6.97 31.03                                                             
C 12.08  6.97 44.82                                                             
C 12.08  6.97 58.62                                                             
C 16.10  4.65  3.45                                                             
C 16.10  4.65 17.24                                                             
C 16.10  4.65 31.03                                                             
C 16.10  4.65 44.82                                                             
C 16.10  4.65 58.62                                                             
C 20.13  2.32  3.45                                                             
C 20.13  2.32 17.24                                                             
C 20.13  2.32 31.03                                                             
C 20.13  2.32 44.82                                                             
C 20.13  2.32 58.62                                                             
C 24.16  0.00  3.45                                                             
C 24.16  0.00 17.24                                                             
C 24.16  0.00 31.03                                                             
C 24.16  0.00 44.82                                                             
C 24.16  0.00 58.62                                                             
C  4.03 16.27  3.45                                                             
C  4.03 16.27 17.24                                                             
C  4.03 16.27 31.03                                                             
C  4.03 16.27 44.82                                                             
C  4.03 16.27 58.62                                                             
C  8.05 13.95  3.45                                                             
C  8.05 13.95 17.24                                                             
C  8.05 13.95 31.03                                                             
C  8.05 13.95 44.82                                                             
C  8.05 13.95 58.62                                                             
C 12.08 11.62  3.45                                                             
C 12.08 11.62 17.24                                                             
C 12.08 11.62 31.03                                                             
C 12.08 11.62 44.82                                                             
C 12.08 11.62 58.62                                                             
C 16.10  9.30  3.45                                                             
C 16.10  9.30 17.24                                                             
C 16.10  9.30 31.03                                                             
C 16.10  9.30 44.82                                                             
C 16.10  9.30 58.62                                                             
C 20.13  6.97  3.45                                                             
C 20.13  6.97 17.24                                                             
C 20.13  6.97 31.03                                                             
C 20.13  6.97 44.82                                                             
C 20.13  6.97 58.62                                                             
C 24.16  4.65  3.45                                                             
C 24.16  4.65 17.24                                                             
C 24.16  4.65 31.03                                                             
C 24.16  4.65 44.82                                                             
C 24.16  4.65 58.62                                                             
C 28.18  2.32  3.45                                                             
C 28.18  2.32 17.24                                                             
C 28.18  2.32 31.03                                                             
C 28.18  2.32 44.82                                                             
C 28.18  2.32 58.62                                                             
C 12.08 16.27  3.45                                                             
C 12.08 16.27 17.24                                                             
C 12.08 16.27 31.03                                                             
C 12.08 16.27 44.82                                                             
C 12.08 16.27 58.62                                                             
C 16.10 13.95  3.45                                                             
C 16.10 13.95 17.24                                                             
C 16.10 13.95 31.03                                                             
C 16.10 13.95 44.82                                                             
C 16.10 13.95 58.62                                                             
C 20.13 11.62  3.45                                                             
C 20.13 11.62 17.24                                                             
C 20.13 11.62 31.03                                                             
C 20.13 11.62 44.82                                                             
C 20.13 11.62 58.62                                                             
C 24.16  9.30  3.45                                                             
C 24.16  9.30 17.24                                                             
C 24.16  9.30 31.03                                                             
C 24.16  9.30 44.82                                                             
C 24.16  9.30 58.62                                                             
C 28.18  6.97  3.45                                                             
C 28.18  6.97 17.24                                                             
C 28.18  6.97 31.03                                                             
C 28.18  6.97 44.82                                                             
C 28.18  6.97 58.62                                                             
C 20.13 16.27  3.45                                                             
C 20.13 16.27 17.24                                                             
C 20.13 16.27 31.03                                                             
C 20.13 16.27 44.82                                                             
C 20.13 16.27 58.62                                                             
C 24.16 13.95  3.45                                                             
C 24.16 13.95 17.24                                                             
C 24.16 13.95 31.03                                                             
C 24.16 13.95 44.82                                                             
C 24.16 13.95 58.62                                                             
C 28.18 11.62  3.45                                                             
C 28.18 11.62 17.24                                                             
C 28.18 11.62 31.03                                                             
C 28.18 11.62 44.82                                                             
C 28.18 11.62 58.62                                                             
C 28.18 16.27  3.45                                                             
C 28.18 16.27 17.24                                                             
C 28.18 16.27 31.03                                                             
C 28.18 16.27 44.82                                                             
C 28.18 16.27 58.62                                                             
C  0.00  0.00 10.34                                                             
C  0.00  0.00 24.14                                                             
C  0.00  0.00 37.93                                                             
C  0.00  0.00 51.72                                                             
C  0.00  0.00 65.51                                                             
C  0.00  4.65 10.34                                                             
C  0.00  4.65 24.14                                                             
C  0.00  4.65 37.93                                                             
C  0.00  4.65 51.72                                                             
C  0.00  4.65 65.51                                                             
C  4.03  2.32 10.34                                                             
C  4.03  2.32 24.14                                                             
C  4.03  2.32 37.93                                                             
C  4.03  2.32 51.72                                                             
C  4.03  2.32 65.51                                                             
C  8.05  0.00 10.34                                                             
C  8.05  0.00 24.14                                                             
C  8.05  0.00 37.93                                                             
C  8.05  0.00 51.72                                                             
C  8.05  0.00 65.51                                                             
C  0.00  9.30 10.34                                                             
C  0.00  9.30 24.14                                                             
C  0.00  9.30 37.93                                                             
C  0.00  9.30 51.72                                                             
C  0.00  9.30 65.51                                                             
C  4.03  6.97 10.34                                                             
C  4.03  6.97 24.14                                                             
C  4.03  6.97 37.93                                                             
C  4.03  6.97 51.72                                                             
C  4.03  6.97 65.51                                                             
C  8.05  4.65 10.34                                                             
C  8.05  4.65 24.14                                                             
C  8.05  4.65 37.93                                                             
C  8.05  4.65 51.72                                                             
C  8.05  4.65 65.51                                                             
C 12.08  2.32 10.34                                                             
C 12.08  2.32 24.14                                                             
C 12.08  2.32 37.93                                                             
C 12.08  2.32 51.72                                                             
C 12.08  2.32 65.51                                                             
C 16.10  0.00 10.34                                                             
C 16.10  0.00 24.14                                                             
C 16.10  0.00 37.93                                                             
C 16.10  0.00 51.72                                                             
C 16.10  0.00 65.51                                                             
C  0.00 13.95 10.34                                                             
C  0.00 13.95 24.14                                                             
C  0.00 13.95 37.93                                                             
C  0.00 13.95 51.72                                                             
C  0.00 13.95 65.51                                                             
C  4.03 11.62 10.34                                                             
C  4.03 11.62 24.14                                                             
C  4.03 11.62 37.93                                                             
C  4.03 11.62 51.72                                                             
C  4.03 11.62 65.51                                                             
C  8.05  9.30 10.34                                                             
C  8.05  9.30 24.14                                                             
C  8.05  9.30 37.93                                                             
C  8.05  9.30 51.72                                                             
C  8.05  9.30 65.51                                                             
C 12.08  6.97 10.34                                                             
C 12.08  6.97 24.14                                                             
C 12.08  6.97 37.93                                                             
C 12.08  6.97 51.72                                                             
C 12.08  6.97 65.51                                                             
C 16.10  4.65 10.34                                                             
C 16.10  4.65 24.14                                                             
C 16.10  4.65 37.93                                                             
C 16.10  4.65 51.72                                                             
C 16.10  4.65 65.51                                                             
C 20.13  2.32 10.34                                                             
C 20.13  2.32 24.14                                                             
C 20.13  2.32 37.93                                                             
C 20.13  2.32 51.72                                                             
C 20.13  2.32 65.51                                                             
C 24.16  0.00 10.34                                                             
C 24.16  0.00 24.14                                                             
C 24.16  0.00 37.93                                                             
C 24.16  0.00 51.72                                                             
C 24.16  0.00 65.51                                                             
C  4.03 16.27 10.34                                                             
C  4.03 16.27 24.14                                                             
C  4.03 16.27 37.93                                                             
C  4.03 16.27 51.72                                                             
C  4.03 16.27 65.51                                                             
C  8.05 13.95 10.34                                                             
C  8.05 13.95 24.14                                                             
C  8.05 13.95 37.93                                                             
C  8.05 13.95 51.72                                                             
C  8.05 13.95 65.51                                                             
C 12.08 11.62 10.34                                                             
C 12.08 11.62 24.14                                                             
C 12.08 11.62 37.93                                                             
C 12.08 11.62 51.72                                                             
C 12.08 11.62 65.51                                                             
C 16.10  9.30 10.34                                                             
C 16.10  9.30 24.14                                                             
C 16.10  9.30 37.93                                                             
C 16.10  9.30 51.72                                                             
C 16.10  9.30 65.51                                                             
C 20.13  6.97 10.34                                                             
C 20.13  6.97 24.14                                                             
C 20.13  6.97 37.93                                                             
C 20.13  6.97 51.72                                                             
C 20.13  6.97 65.51                                                             
C 24.16  4.65 10.34                                                             
C 24.16  4.65 24.14                                                             
C 24.16  4.65 37.93                                                             
C 24.16  4.65 51.72                                                             
C 24.16  4.65 65.51                                                             
C 28.18  2.32 10.34                                                             
C 28.18  2.32 24.14                                                             
C 28.18  2.32 37.93                                                             
C 28.18  2.32 51.72                                                             
C 28.18  2.32 65.51                                                             
C 12.08 16.27 10.34                                                             
C 12.08 16.27 24.14                                                             
C 12.08 16.27 37.93                                                             
C 12.08 16.27 51.72                                                             
C 12.08 16.27 65.51                                                             
C 16.10 13.95 10.34                                                             
C 16.10 13.95 24.14                                                             
C 16.10 13.95 37.93                                                             
C 16.10 13.95 51.72                                                             
C 16.10 13.95 65.51                                                             
C 20.13 11.62 10.34                                                             
C 20.13 11.62 24.14                                                             
C 20.13 11.62 37.93                                                             
C 20.13 11.62 51.72                                                             
C 20.13 11.62 65.51                                                             
C 24.16  9.30 10.34                                                             
C 24.16  9.30 24.14                                                             
C 24.16  9.30 37.93                                                             
C 24.16  9.30 51.72                                                             
C 24.16  9.30 65.51                                                             
C 28.18  6.97 10.34                                                             
C 28.18  6.97 24.14                                                             
C 28.18  6.97 37.93                                                             
C 28.18  6.97 51.72                                                             
C 28.18  6.97 65.51                                                             
C 20.13 16.27 10.34                                                             
C 20.13 16.27 24.14                                                             
C 20.13 16.27 37.93                                                             
C 20.13 16.27 51.72                                                             
C 20.13 16.27 65.51                                                             
C 24.16 13.95 10.34                                                             
C 24.16 13.95 24.14                                                             
C 24.16 13.95 37.93                                                             
C 24.16 13.95 51.72                                                             
C 24.16 13.95 65.51                                                             
C 28.18 11.62 10.34                                                             
C 28.18 11.62 24.14                                                             
C 28.18 11.62 37.93                                                             
C 28.18 11.62 51.72                                                             
C 28.18 11.62 65.51                                                             
C 28.18 16.27 10.34                                                             
C 28.18 16.27 24.14                                                             
C 28.18 16.27 37.93                                                             
C 28.18 16.27 51.72                                                             
C 28.18 16.27 65.51                                                             
C  1.34  2.32  3.45                                                             
C  1.34  2.32 17.24                                                             
C  1.34  2.32 31.03                                                             
C  1.34  2.32 44.82                                                             
C  1.34  2.32 58.62                                                             
C  5.37  0.00  3.45                                                             
C  5.37  0.00 17.24                                                             
C  5.37  0.00 31.03                                                             
C  5.37  0.00 44.82                                                             
C  5.37  0.00 58.62                                                             
C  1.34  6.97  3.45                                                             
C  1.34  6.97 17.24                                                             
C  1.34  6.97 31.03                                                             
C  1.34  6.97 44.82                                                             
C  1.34  6.97 58.62                                                             
C  5.37  4.65  3.45                                                             
C  5.37  4.65 17.24                                                             
C  5.37  4.65 31.03                                                             
C  5.37  4.65 44.82                                                             
C  5.37  4.65 58.62                                                             
C  9.39  2.32  3.45                                                             
C  9.39  2.32 17.24                                                             
C  9.39  2.32 31.03                                                             
C  9.39  2.32 44.82                                                             
C  9.39  2.32 58.62                                                             
C 13.42  0.00  3.45                                                             
C 13.42  0.00 17.24                                                             
C 13.42  0.00 31.03                                                             
C 13.42  0.00 44.82                                                             
C 13.42  0.00 58.62                                                             
C  1.34 11.62  3.45                                                             
C  1.34 11.62 17.24                                                             
C  1.34 11.62 31.03                                                             
C  1.34 11.62 44.82                                                             
C  1.34 11.62 58.62                                                             
C  5.37  9.30  3.45                                                             
C  5.37  9.30 17.24                                                             
C  5.37  9.30 31.03                                                             
C  5.37  9.30 44.82                                                             
C  5.37  9.30 58.62                                                             
C  9.39  6.97  3.45                                                             
C  9.39  6.97 17.24                                                             
C  9.39  6.97 31.03                                                             
C  9.39  6.97 44.82                                                             
C  9.39  6.97 58.62                                                             
C 13.42  4.65  3.45                                                             
C 13.42  4.65 17.24                                                             
C 13.42  4.65 31.03                                                             
C 13.42  4.65 44.82                                                             
C 13.42  4.65 58.62                                                             
C 17.45  2.32  3.45                                                             
C 17.45  2.32 17.24                                                             
C 17.45  2.32 31.03                                                             
C 17.45  2.32 44.82                                                             
C 17.45  2.32 58.62                                                             
C 21.47  0.00  3.45                                                             
C 21.47  0.00 17.24                                                             
C 21.47  0.00 31.03                                                             
C 21.47  0.00 44.82                                                             
C 21.47  0.00 58.62                                                             
C  1.34 16.27  3.45                                                             
C  1.34 16.27 17.24                                                             
C  1.34 16.27 31.03                                                             
C  1.34 16.27 44.82                                                             
C  1.34 16.27 58.62                                                             
C  5.37 13.95  3.45                                                             
C  5.37 13.95 17.24                                                             
C  5.37 13.95 31.03                                                             
C  5.37 13.95 44.82                                                             
C  5.37 13.95 58.62                                                             
C  9.39 11.62  3.45                                                             
C  9.39 11.62 17.24                                                             
C  9.39 11.62 31.03                                                             
C  9.39 11.62 44.82                                                             
C  9.39 11.62 58.62                                                             
C 13.42  9.30  3.45                                                             
C 13.42  9.30 17.24                                                             
C 13.42  9.30 31.03                                                             
C 13.42  9.30 44.82                                                             
C 13.42  9.30 58.62                                                             
C 17.45  6.97  3.45                                                             
C 17.45  6.97 17.24                                                             
C 17.45  6.97 31.03                                                             
C 17.45  6.97 44.82                                                             
C 17.45  6.97 58.62                                                             
C 21.47  4.65  3.45                                                             
C 21.47  4.65 17.24                                                             
C 21.47  4.65 31.03                                                             
C 21.47  4.65 44.82                                                             
C 21.47  4.65 58.62                                                             
C 25.50  2.32  3.45                                                             
C 25.50  2.32 17.24                                                             
C 25.50  2.32 31.03                                                             
C 25.50  2.32 44.82                                                             
C 25.50  2.32 58.62                                                             
C 29.52  0.00  3.45                                                             
C 29.52  0.00 17.24                                                             
C 29.52  0.00 31.03                                                             
C 29.52  0.00 44.82                                                             
C 29.52  0.00 58.62                                                             
C  9.39 16.27  3.45                                                             
C  9.39 16.27 17.24                                                             
C  9.39 16.27 31.03                                                             
C  9.39 16.27 44.82                                                             
C  9.39 16.27 58.62                                                             
C 13.42 13.95  3.45                                                             
C 13.42 13.95 17.24                                                             
C 13.42 13.95 31.03                                                             
C 13.42 13.95 44.82                                                             
C 13.42 13.95 58.62                                                             
C 17.45 11.62  3.45                                                             
C 17.45 11.62 17.24                                                             
C 17.45 11.62 31.03                                                             
C 17.45 11.62 44.82                                                             
C 17.45 11.62 58.62                                                             
C 21.47  9.30  3.45                                                             
C 21.47  9.30 17.24                                                             
C 21.47  9.30 31.03                                                             
C 21.47  9.30 44.82                                                             
C 21.47  9.30 58.62                                                             
C 25.50  6.97  3.45                                                             
C 25.50  6.97 17.24                                                             
C 25.50  6.97 31.03                                                             
C 25.50  6.97 44.82                                                             
C 25.50  6.97 58.62                                                             
C 29.52  4.65  3.45                                                             
C 29.52  4.65 17.24                                                             
C 29.52  4.65 31.03                                                             
C 29.52  4.65 44.82                                                             
C 29.52  4.65 58.62                                                             
C 17.45 16.27  3.45                                                             
C 17.45 16.27 17.24                                                             
C 17.45 16.27 31.03                                                             
C 17.45 16.27 44.82                                                             
C 17.45 16.27 58.62                                                             
C 21.47 13.95  3.45                                                             
C 21.47 13.95 17.24                                                             
C 21.47 13.95 31.03                                                             
C 21.47 13.95 44.82                                                             
C 21.47 13.95 58.62                                                             
C 25.50 11.62  3.45                                                             
C 25.50 11.62 17.24                                                             
C 25.50 11.62 31.03                                                             
C 25.50 11.62 44.82                                                             
C 25.50 11.62 58.62                                                             
C 29.52  9.30  3.45                                                             
C 29.52  9.30 17.24                                                             
C 29.52  9.30 31.03                                                             
C 29.52  9.30 44.82                                                             
C 29.52  9.30 58.62                                                             
C 25.50 16.27  3.45                                                             
C 25.50 16.27 17.24                                                             
C 25.50 16.27 31.03                                                             
C 25.50 16.27 44.82                                                             
C 25.50 16.27 58.62                                                             
C 29.52 13.95  3.45                                                             
C 29.52 13.95 17.24                                                             
C 29.52 13.95 31.03                                                             
C 29.52 13.95 44.82                                                             
C 29.52 13.95 58.62                                                             
C  2.68  0.00 10.34                                                             
C  2.68  0.00 24.14                                                             
C  2.68  0.00 37.93                                                             
C  2.68  0.00 51.72                                                             
C  2.68  0.00 65.51                                                             
C  2.68  4.65 10.34                                                             
C  2.68  4.65 24.14                                                             
C  2.68  4.65 37.93                                                             
C  2.68  4.65 51.72                                                             
C  2.68  4.65 65.51                                                             
C  6.71  2.32 10.34                                                             
C  6.71  2.32 24.14                                                             
C  6.71  2.32 37.93                                                             
C  6.71  2.32 51.72                                                             
C  6.71  2.32 65.51                                                             
C 10.74  0.00 10.34                                                             
C 10.74  0.00 24.14                                                             
C 10.74  0.00 37.93                                                             
C 10.74  0.00 51.72                                                             
C 10.74  0.00 65.51                                                             
C  2.68  9.30 10.34                                                             
C  2.68  9.30 24.14                                                             
C  2.68  9.30 37.93                                                             
C  2.68  9.30 51.72                                                             
C  2.68  9.30 65.51                                                             
C  6.71  6.97 10.34                                                             
C  6.71  6.97 24.14                                                             
C  6.71  6.97 37.93                                                             
C  6.71  6.97 51.72                                                             
C  6.71  6.97 65.51                                                             
C 10.74  4.65 10.34                                                             
C 10.74  4.65 24.14                                                             
C 10.74  4.65 37.93                                                             
C 10.74  4.65 51.72                                                             
C 10.74  4.65 65.51                                                             
C 14.76  2.32 10.34                                                             
C 14.76  2.32 24.14                                                             
C 14.76  2.32 37.93                                                             
C 14.76  2.32 51.72                                                             
C 14.76  2.32 65.51                                                             
C 18.79  0.00 10.34                                                             
C 18.79  0.00 24.14                                                             
C 18.79  0.00 37.93                                                             
C 18.79  0.00 51.72                                                             
C 18.79  0.00 65.51                                                             
C  2.68 13.95 10.34                                                             
C  2.68 13.95 24.14                                                             
C  2.68 13.95 37.93                                                             
C  2.68 13.95 51.72                                                             
C  2.68 13.95 65.51                                                             
C  6.71 11.62 10.34                                                             
C  6.71 11.62 24.14                                                             
C  6.71 11.62 37.93                                                             
C  6.71 11.62 51.72                                                             
C  6.71 11.62 65.51                                                             
C 10.74  9.30 10.34                                                             
C 10.74  9.30 24.14                                                             
C 10.74  9.30 37.93                                                             
C 10.74  9.30 51.72                                                             
C 10.74  9.30 65.51                                                             
C 14.76  6.97 10.34                                                             
C 14.76  6.97 24.14                                                             
C 14.76  6.97 37.93                                                             
C 14.76  6.97 51.72                                                             
C 14.76  6.97 65.51                                                             
C 18.79  4.65 10.34                                                             
C 18.79  4.65 24.14                                                             
C 18.79  4.65 37.93                                                             
C 18.79  4.65 51.72                                                             
C 18.79  4.65 65.51                                                             
C 22.81  2.32 10.34                                                             
C 22.81  2.32 24.14                                                             
C 22.81  2.32 37.93                                                             
C 22.81  2.32 51.72                                                             
C 22.81  2.32 65.51                                                             
C 26.84  0.00 10.34                                                             
C 26.84  0.00 24.14                                                             
C 26.84  0.00 37.93                                                             
C 26.84  0.00 51.72                                                             
C 26.84  0.00 65.51                                                             
C  6.71 16.27 10.34                                                             
C  6.71 16.27 24.14                                                             
C  6.71 16.27 37.93                                                             
C  6.71 16.27 51.72                                                             
C  6.71 16.27 65.51                                                             
C 10.74 13.95 10.34                                                             
C 10.74 13.95 24.14                                                             
C 10.74 13.95 37.93                                                             
C 10.74 13.95 51.72                                                             
C 10.74 13.95 65.51                                                             
C 14.76 11.62 10.34                                                             
C 14.76 11.62 24.14                                                             
C 14.76 11.62 37.93                                                             
C 14.76 11.62 51.72                                                             
C 14.76 11.62 65.51                                                             
C 18.79  9.30 10.34                                                             
C 18.79  9.30 24.14                                                             
C 18.79  9.30 37.93                                                             
C 18.79  9.30 51.72                                                             
C 18.79  9.30 65.51                                                             
C 22.81  6.97 10.34                                                             
C 22.81  6.97 24.14                                                             
C 22.81  6.97 37.93                                                             
C 22.81  6.97 51.72                                                             
C 22.81  6.97 65.51                                                             
C 26.84  4.65 10.34                                                             
C 26.84  4.65 24.14                                                             
C 26.84  4.65 37.93                                                             
C 26.84  4.65 51.72                                                             
C 26.84  4.65 65.51                                                             
C 30.86  2.32 10.34                                                             
C 30.86  2.32 24.14                                                             
C 30.86  2.32 37.93                                                             
C 30.86  2.32 51.72                                                             
C 30.86  2.32 65.51                                                             
C 14.76 16.27 10.34                                                             
C 14.76 16.27 24.14                                                             
C 14.76 16.27 37.93                                                             
C 14.76 16.27 51.72                                                             
C 14.76 16.27 65.51                                                             
C 18.79 13.95 10.34                                                             
C 18.79 13.95 24.14                                                             
C 18.79 13.95 37.93                                                             
C 18.79 13.95 51.72                                                             
C 18.79 13.95 65.51                                                             
C 22.81 11.62 10.34                                                             
C 22.81 11.62 24.14                                                             
C 22.81 11.62 37.93                                                             
C 22.81 11.62 51.72                                                             
C 22.81 11.62 65.51                                                             
C 26.84  9.30 10.34                                                             
C 26.84  9.30 24.14                                                             
C 26.84  9.30 37.93                                                             
C 26.84  9.30 51.72                                                             
C 26.84  9.30 65.51                                                             
C 30.86  6.97 10.34                                                             
C 30.86  6.97 24.14                                                             
C 30.86  6.97 37.93                                                             
C 30.86  6.97 51.72                                                             
C 30.86  6.97 65.51                                                             
C 22.81 16.27 10.34                                                             
C 22.81 16.27 24.14                                                             
C 22.81 16.27 37.93                                                             
C 22.81 16.27 51.72                                                             
C 22.81 16.27 65.51                                                             
C 26.84 13.95 10.34                                                             
C 26.84 13.95 24.14                                                             
C 26.84 13.95 37.93                                                             
C 26.84 13.95 51.72                                                             
C 26.84 13.95 65.51                                                             
C 30.86 11.62 10.34                                                             
C 30.86 11.62 24.14                                                             
C 30.86 11.62 37.93                                                             
C 30.86 11.62 51.72                                                             
C 30.86 11.62 65.51                                                             
C 30.86 16.27 10.34                                                             
C 30.86 16.27 24.14                                                             
C 30.86 16.27 37.93                                                             
C 30.86 16.27 51.72                                                             
C 30.86 16.27 65.51                                                             
%ENDBLOCK POSITIONS_ABS                                                         

--------------------------------------------------------------------------------
-------------------------------- END INPUT FILE --------------------------------
--------------------------------------------------------------------------------


 
<<<<<<<<<<<<<<<<<<<<<<<<<<<<<<<<< Full system >>>>>>>>>>>>>>>>>>>>>>>>>>>>>>>>>>
<<<<<<<<<<<<<<<<<<<<<<<<<<< PAW Dataset information >>>>>>>>>>>>>>>>>>>>>>>>>>>
File: ~/pp/paw/c_pbe_abinit.paw; rc = 1.25 bohr; shape type =  3; rshape = 1.25 bohr;
  Atomic number:  6;  ionic charge:  4.000000
    Partial Wave 1: l = 0
    Partial Wave 2: l = 0
    Partial Wave 3: l = 1
    Partial Wave 4: l = 1
  Core charge supplied for Nonlinear Core Corrections
<<<<<<<<<<<<<<<<<<<<<<<<<<<<<<<<<<<<<<< >>>>>>>>>>>>>>>>>>>>>>>>>>>>>>>>>>>>>>>

-------------------------- Atom counting information ---------------------------
Symbol    Natoms    Nngwfs    Nprojs
  C        640      2560      5120
.......   ......    ......    ......
Totals:    640      2560      5120
--------------------------------------------------------------------------------

=============================== PSINC grid sizes ===============================
                      Simulation cell:   63 x  35 x 136
                              FFT-box:   63 x  35 x 117
                                  PPD:    7 x   5 x   1
Grid space d1=  0.511269841270a0 (KE cutoff=  29.06054Eh = 790.77748eV)
Grid space d2=  0.531142857143a0 (KE cutoff=  26.92659Eh = 732.70972eV)
Grid space d3=  0.507058823529a0 (KE cutoff=  29.54523Eh = 803.96650eV)
================================================================================
  
WARNING in cell_grid_distribute:
Average of less than one 23-slab per node, so workload cannot be
equally balanced between nodes.

********************* Fourier parallelisation information **********************
       Coarse grid (whole simulation cell) dimensions:     63    35   136
          Real-space ('12') slabs/node (min max mean):      3     4     3
         Recip-space ('23') slabs/node (min max mean):      0     1     0
********************************************************************************

********************* Fourier parallelisation information **********************
       Double grid (whole simulation cell) dimensions:    126    70   272
          Real-space ('12') slabs/node (min max mean):      6     7     6
         Recip-space ('23') slabs/node (min max mean):      1     2     1
********************************************************************************

Atom SCF Calculation for C  : Z (AE atom) =   6 : Z (PS atom) =   4
Config String: 2s2 2p2
Orbitals (num,occ):  2     2.00 2.00
Orbitals   (num,l):  2        0    1
Real-space Grid (nr,dr,rmax): 1293    0.0069659443    9.0000000000
Spherical Bessel Basis (nsws,lmax,cutoff):   37    2  161.4736382572
Confining potential (l,width,scale):  0    3.0000000000  100.0000000000
Confining potential (l,width,scale):  1    3.0000000000  100.0000000000
  1         -5.4468762137   -1.3311033486    4.5135257941   -1.6400141247
  2         -5.4563922850   -1.3925089082    4.4492606193   -1.6178955363
  3         -5.4591606672   -1.4162756486    4.4239316220   -1.6104942496
  4         -5.4639338613   -1.4240698331    4.4156521757   -1.6083566999
  5         -5.4657436445   -1.4272842389    4.4122438165   -1.6075116305
  6         -5.4665049591   -1.4285796230    4.4108740217   -1.6071800157
  7         -5.4668137280   -1.4291083664    4.4103163978   -1.6070462938
  8         -5.4669397753   -1.4293243321    4.4100892688   -1.6069921003
  9         -5.4669910134   -1.4294128082    4.4099964732   -1.6069700140
 10         -5.4670118707   -1.4294491026    4.4099585094   -1.6069609935
 11         -5.4670203648   -1.4294640137    4.4099429536   -1.6069573023
 12         -5.4670238269   -1.4294701480    4.4099365706   -1.6069557895
 13         -5.4670252393   -1.4294726750    4.4099339478   -1.6069551687
 14         -5.4670258160   -1.4294737172    4.4099328686   -1.6069549136
 15         -5.4670260518   -1.4294741476    4.4099324241   -1.6069548086
 16         -5.4670261483   -1.4294743256    4.4099322407   -1.6069547654
Atom SCF converged after  16 iterations to a total energy of     -5.46702615

Determining parallel strategy ...
... using space-filling curve
... NGWF load balancing: max     64;  min     64;  average     64
... Projector load balancing: max    128;  min    128;  average    128
... done
Calculating Ewald energy ...
              Ewald: real-space energy =    9482.660030
        Ewald: reciprocal-space energy =       0.258173
         Ewald: (sum_charge)**2 Energy =   11001.050404
         Ewald: (sum_charge**2) Energy =     869.709398
                          Ewald Energy =   -2387.841599
Basis initialisation ...... NGWF spheres initialised
... Projector spheres initialised
... NGWF tight boxes initialised
... Projector tight boxes initialised
... Tight-boxes gathered
... NGWF basis size (local,global):     692724  27900064
... PAW projector initialisation
... done

============================= Charge Augmentation ==============================
                           Aug box size:   11 x  11 x  11
================================================================================

========================== Sparse matrix information ===========================
                        Overlap matrix filling:  40.94%
                        Density kernel filling: 100.00%
              NGWF-Proj overlap matrix filling:  12.19%
                    Aug Overlap matrix filling:  47.03%
                    Hamiltonian matrix filling:  47.03%
                  NGWF diagonal matrix filling:   0.16%
                             KS matrix filling: 100.00% 
                           KSKS matrix filling: 100.00% 
================================================================================

Sparse matrix initialisation ... done
NGWF initialisation ...... done
============ Calculation of NGWF S^-1 using Hotelling algorithm ================ 
         Iteration  |  Frobenius norm and Maximum abs value    (of I-S*S_n^-1)   
               1       0.48981901E+02     0.97498708E+00
               2       0.47700323E+02     0.95182056E+00
               3       0.45791797E+02     0.91015495E+00
               4       0.43336796E+02     0.84106879E+00
               5       0.40413842E+02     0.73891921E+00
               6       0.37050215E+02     0.67374253E+00
               7       0.33594624E+02     0.62701275E+00
               8       0.30299172E+02     0.58774753E+00
               9       0.26715867E+02     0.54319467E+00
              10       0.22143656E+02     0.47218543E+00
              11       0.16202510E+02     0.36017893E+00
              12       0.94480303E+01     0.21486221E+00
              13       0.36934768E+01     0.81898718E-01
              14       0.67479165E+00     0.13718344E-01
              15       0.26671249E-01     0.47252806E-03
              16       0.53283198E-04     0.71628802E-06
              17       0.32230182E-09     0.26397773E-11
              18       0.71014376E-13     0.38857806E-14
================================================================================
Calculating core density ...
================================= Core Density =================================
               Core den box size:   21 x  21 x  21
================================================================================
 ... done
Up spin density kernel initialisation ...... done

Writing density kernel to file "3.6491432_GO_manual_4x64graphite.dkn" ... done

>>> Optimising kernel for current NGWFs:

--------------------------- Ensemble-DFT optimisation --------------------------
Running ScaLAPACK on   40 processor(s).

--------------------------------------------------------------------------------
  Iter                              Commutator    Free_energy(A=E-TS)     DeltaA
#    0                          0.000037320457   -3650.93748792108227  -3.65E+03

Step                       =       0.381966011250
Energy                     =   -3650.937459510653
Entropy (-TS)              =      -0.000028410794
Free energy (A=E-TS)       =   -3650.937487921082
Est. 0K Energy 0.5*(E+A)   =   -3650.937473715868
Residual Non-orthogonality =       0.000000000000
Residual N_electrons       =       0.000000000365

Spin          Integrated_Ne            Fermi_level     Delta_Fermi_level
   1      2559.999999997855         0.169949510471              1.70E-01

                           Spin 1          
     Orb      H-eigenvalues     Occupancies
       1 |    -0.5512195557    1.0000000000 | 
                          ------
    1276 |     0.1352531522    0.9999825516 | 
    1277 |     0.1358597768    0.9999788677 | 
    1278 |     0.1358774293    0.9999787496 | 
    1279 |     0.1360739824    0.9999773889 | 
    1280 |     0.1366975513    0.9999724681 | 
                 - Gap at zero temperature -
    1281 |     0.2056988447    0.0000125128 | 
    1282 |     0.2057133408    0.0000124556 | 
    1283 |     0.2057177532    0.0000124383 | 
    1284 |     0.2058952918    0.0000117602 | 
    1285 |     0.2059176260    0.0000116775 | 
                          ------
    2560 |     0.9999945088    0.0000000000 | 

                       |  Abs_value |  Threshold | Converged
     Delta_Free_energy |   3.65E+03 |   1.00E-06 |        No
     Delta_Energy      |   3.65E+03 |   1.00E-04 |        No
     Delta_Entropy     |   2.84E-05 |   1.00E-04 |       Yes
     Commutator        |   3.73E-05 |   1.00E-05 |        No
     Delta_Fermi_level |   1.70E-01 |   1.00E-03 |        No

  Line search of the free energy minimum:
  Step_type        Step             Free_energy   Predicted_free_energy
.   Initial    0.000000    -3650.93748792108227
.    Trial1    0.381966    -3650.93900033311911
.    Trial2    0.618034    -3650.93930669943620
. Quadratic    0.650667    -3650.93931143040527    -3650.93931128578743

--------------------------------------------------------------------------------
  Iter                              Commutator    Free_energy(A=E-TS)     DeltaA
#    1                          0.000020631066   -3650.93931143040527  -1.82E-03

Step                       =       0.650666882573
Energy                     =   -3650.939283102066
Entropy (-TS)              =      -0.000028328072
Free energy (A=E-TS)       =   -3650.939311430405
Est. 0K Energy 0.5*(E+A)   =   -3650.939297266235
Residual Non-orthogonality =       0.000000000000
Residual N_electrons       =      -0.000000000267

Spin          Integrated_Ne            Fermi_level     Delta_Fermi_level
   1      2560.000000001582         0.168900273891             -1.05E-03

                           Spin 1          
     Orb      H-eigenvalues     Occupancies
       1 |    -0.5544569578    1.0000000000 | 
                          ------
    1276 |     0.1342710391    0.9999821778 | 
    1277 |     0.1347148899    0.9999794964 | 
    1278 |     0.1347282383    0.9999794098 | 
    1279 |     0.1350895919    0.9999769211 | 
    1280 |     0.1355459179    0.9999733441 | 
                 - Gap at zero temperature -
    1281 |     0.2045947082    0.0000127316 | 
    1282 |     0.2046107552    0.0000126672 | 
    1283 |     0.2046187114    0.0000126355 | 
    1284 |     0.2047861315    0.0000119848 | 
    1285 |     0.2048172532    0.0000118676 | 
                          ------
    2560 |     0.9976250454    0.0000000000 | 

                       |  Abs_value |  Threshold | Converged
     Delta_Free_energy |   1.82E-03 |   1.00E-06 |        No
     Delta_Energy      |   1.82E-03 |   1.00E-04 |        No
     Delta_Entropy     |   8.27E-08 |   1.00E-04 |       Yes
     Commutator        |   2.06E-05 |   1.00E-05 |        No
     Delta_Fermi_level |   1.05E-03 |   1.00E-03 |        No

  Line search of the free energy minimum:
  Step_type        Step             Free_energy   Predicted_free_energy
.   Initial    0.000000    -3650.93931143040527
.    Trial1    0.650667    -3650.93860729701828
.    Trial2    0.248533    -3650.93970305316316
. Quadratic    0.243469    -3650.93970322983569    -3650.93970322265204

--------------------------------------------------------------------------------
  Iter                              Commutator    Free_energy(A=E-TS)     DeltaA
#    2                          0.000010231803   -3650.93970322983569  -3.92E-04

Step                       =       0.243468724644
Energy                     =   -3650.939674929128
Entropy (-TS)              =      -0.000028300706
Free energy (A=E-TS)       =   -3650.939703229836
Est. 0K Energy 0.5*(E+A)   =   -3650.939689079482
Residual Non-orthogonality =       0.000000000000
Residual N_electrons       =      -0.000000000001

Spin          Integrated_Ne            Fermi_level     Delta_Fermi_level
   1      2560.000000000005         0.168763508315             -1.37E-04

                           Spin 1          
     Orb      H-eigenvalues     Occupancies
       1 |    -0.5548814195    1.0000000000 | 
                          ------
    1276 |     0.1340961303    0.9999823912 | 
    1277 |     0.1345996754    0.9999793564 | 
    1278 |     0.1346127840    0.9999792708 | 
    1279 |     0.1349126624    0.9999772120 | 
    1280 |     0.1354284857    0.9999731809 | 
                 - Gap at zero temperature -
    1281 |     0.2044838492    0.0000126279 | 
    1282 |     0.2044982111    0.0000125707 | 
    1283 |     0.2045071864    0.0000125351 | 
    1284 |     0.2046803813    0.0000118680 | 
    1285 |     0.2047094068    0.0000117597 | 
                          ------
    2560 |     0.9973096495    0.0000000000 | 

                       |  Abs_value |  Threshold | Converged
     Delta_Free_energy |   3.92E-04 |   1.00E-06 |        No
     Delta_Energy      |   3.92E-04 |   1.00E-04 |        No
     Delta_Entropy     |   2.74E-08 |   1.00E-04 |       Yes
     Commutator        |   1.02E-05 |   1.00E-05 |        No
     Delta_Fermi_level |   1.37E-04 |   1.00E-03 |       Yes

  Line search of the free energy minimum:
  Step_type        Step             Free_energy   Predicted_free_energy
.   Initial    0.000000    -3650.93970322983569
.    Trial1    0.243469    -3650.93978958263551
.    Trial2    0.532438    -3650.93979541107456
. Quadratic    0.404006    -3650.93980576585818    -3650.93980577409184

--------------------------------------------------------------------------------
  Iter                              Commutator    Free_energy(A=E-TS)     DeltaA
#    3                          0.000006883159   -3650.93980576585818  -1.03E-04

Step                       =       0.404005517375
Energy                     =   -3650.939777499252
Entropy (-TS)              =      -0.000028266333
Free energy (A=E-TS)       =   -3650.939805765858
Est. 0K Energy 0.5*(E+A)   =   -3650.939791632555
Residual Non-orthogonality =       0.000000000000
Residual N_electrons       =      -0.000000000272

Spin          Integrated_Ne            Fermi_level     Delta_Fermi_level
   1      2560.000000001616         0.168590569398             -1.73E-04

                           Spin 1          
     Orb      H-eigenvalues     Occupancies
       1 |    -0.5554048638    1.0000000000 | 
                          ------
    1276 |     0.1339002282    0.9999825184 | 
    1277 |     0.1344333902    0.9999793130 | 
    1278 |     0.1344462512    0.9999792288 | 
    1279 |     0.1347150427    0.9999773889 | 
    1280 |     0.1352602643    0.9999731409 | 
                 - Gap at zero temperature -
    1281 |     0.2043263392    0.0000125665 | 
    1282 |     0.2043393649    0.0000125149 | 
    1283 |     0.2043490044    0.0000124769 | 
    1284 |     0.2045266988    0.0000117961 | 
    1285 |     0.2045532075    0.0000116977 | 
                          ------
    2560 |     0.9969363927    0.0000000000 | 

                       |  Abs_value |  Threshold | Converged
     Delta_Free_energy |   1.03E-04 |   1.00E-06 |        No
     Delta_Energy      |   1.03E-04 |   1.00E-04 |        No
     Delta_Entropy     |   3.44E-08 |   1.00E-04 |       Yes
     Commutator        |   6.88E-06 |   1.00E-05 |       Yes
     Delta_Fermi_level |   1.73E-04 |   1.00E-03 |       Yes

  Line search of the free energy minimum:
  Step_type        Step             Free_energy   Predicted_free_energy
.   Initial    0.000000    -3650.93980576585818
.    Trial1    0.404006    -3650.93983338347653
.    Trial2    0.631655    -3650.93976095810558
. Quadratic    0.257862    -3650.93984645994897    -3650.93984645217006

--------------------------------------------------------------------------------
  Iter                              Commutator    Free_energy(A=E-TS)     DeltaA
#    4                          0.000004356153   -3650.93984645994897  -4.07E-05

Step                       =       0.257862061195
Energy                     =   -3650.939818206571
Entropy (-TS)              =      -0.000028253606
Free energy (A=E-TS)       =   -3650.939846459949
Est. 0K Energy 0.5*(E+A)   =   -3650.939832333260
Residual Non-orthogonality =       0.000000000000
Residual N_electrons       =       0.000000000228

Spin          Integrated_Ne            Fermi_level     Delta_Fermi_level
   1      2559.999999998649         0.168524938045             -6.56E-05

                           Spin 1          
[...]
 C   275 -- C   555       -0.10      5.37000
 C   274 -- C   554       -0.10      5.37000
 C   273 -- C   553       -0.10      5.37000
 C   272 -- C   552       -0.10      5.37000
 C   271 -- C   551       -0.10      5.37000
 C   270 -- C   550       -0.10      5.37000
 C   269 -- C   549       -0.10      5.37000
 C   268 -- C   548       -0.10      5.37000
 C   267 -- C   547       -0.10      5.37000
 C   266 -- C   546       -0.10      5.37000
 C   130 -- C   465       -0.09      5.37000
 C   129 -- C   464       -0.09      5.37000
 C   128 -- C   463       -0.09      5.37000
 C   127 -- C   462       -0.09      5.37000
 C   126 -- C   461       -0.09      5.37000
 C   240 -- C   525       -0.10      5.37000
 C   239 -- C   524       -0.10      5.37000
 C   238 -- C   523       -0.10      5.37000
 C   237 -- C   522       -0.10      5.37000
 C   236 -- C   521       -0.10      5.37000
 C    23 -- C   478       -0.09      5.37202
 C    49 -- C   469       -0.09      5.37202
 C    48 -- C   468       -0.09      5.37202
 C    47 -- C   467       -0.09      5.37202
 C    22 -- C   477       -0.09      5.37202
 C    46 -- C   466       -0.09      5.37202
 C    21 -- C   476       -0.09      5.37202
 C    25 -- C   480       -0.09      5.37202
 C    24 -- C   479       -0.09      5.37202
 C    50 -- C   470       -0.09      5.37202
 C    24 -- C   449       -0.09      5.37202
 C     6 -- C   416       -0.09      5.37202
 C    23 -- C   448       -0.09      5.37202
 C    22 -- C   447       -0.09      5.37202
 C    10 -- C   470       -0.09      5.37202
 C     5 -- C   450       -0.09      5.37202
 C    21 -- C   446       -0.09      5.37202
 C    10 -- C   420       -0.09      5.37202
 C     9 -- C   469       -0.09      5.37202
 C     9 -- C   419       -0.09      5.37202
 C     8 -- C   468       -0.09      5.37202
 C     4 -- C   449       -0.09      5.37202
 C     8 -- C   418       -0.09      5.37202
 C   285 -- C   580       -0.09      5.37202
 C   284 -- C   579       -0.09      5.37202
 C   283 -- C   578       -0.09      5.37202
 C   282 -- C   577       -0.09      5.37202
 C   281 -- C   576       -0.09      5.37202
 C     2 -- C   447       -0.09      5.37202
 C     7 -- C   467       -0.09      5.37202
 C   260 -- C   605       -0.09      5.37202
 C   259 -- C   604       -0.09      5.37202
 C   258 -- C   603       -0.09      5.37202
 C   257 -- C   602       -0.09      5.37202
 C   256 -- C   601       -0.09      5.37202
 C     7 -- C   417       -0.09      5.37202
 C     1 -- C   446       -0.09      5.37202
 C     6 -- C   466       -0.09      5.37202
 C    25 -- C   450       -0.09      5.37202
 C     3 -- C   448       -0.09      5.37202
 C   219 -- C   569       -0.09      5.37202
 C   218 -- C   568       -0.09      5.37202
 C   217 -- C   567       -0.09      5.37202
 C   216 -- C   566       -0.09      5.37202
 C   250 -- C   540       -0.09      5.37202
 C   249 -- C   539       -0.09      5.37202
 C   248 -- C   538       -0.09      5.37202
 C   247 -- C   537       -0.09      5.37202
 C   246 -- C   536       -0.09      5.37202
 C   220 -- C   570       -0.09      5.37202
 C   205 -- C   550       -0.09      5.37202
 C   204 -- C   549       -0.09      5.37202
 C   203 -- C   548       -0.09      5.37202
 C   202 -- C   547       -0.09      5.37202
 C   201 -- C   546       -0.09      5.37202
 C    95 -- C   365       -0.09      5.37202
 C    94 -- C   364       -0.09      5.37202
 C    93 -- C   363       -0.09      5.37202
 C    92 -- C   362       -0.09      5.37202
 C    91 -- C   361       -0.09      5.37202
 C    65 -- C   395       -0.09      5.37202
 C    64 -- C   394       -0.09      5.37202
 C    63 -- C   393       -0.09      5.37202
 C    30 -- C   355       -0.09      5.37202
 C    62 -- C   392       -0.09      5.37202
 C    61 -- C   391       -0.09      5.37202
 C    29 -- C   354       -0.09      5.37202
 C   260 -- C   550       -0.09      5.37202
 C   259 -- C   549       -0.09      5.37202
 C    28 -- C   353       -0.09      5.37202
 C   258 -- C   548       -0.09      5.37202
 C   257 -- C   547       -0.09      5.37202
 C   256 -- C   546       -0.09      5.37202
 C    27 -- C   352       -0.09      5.37202
 C    26 -- C   351       -0.09      5.37202
 C    55 -- C   335       -0.09      5.37202
 C    54 -- C   334       -0.09      5.37202
 C    53 -- C   333       -0.09      5.37202
 C   230 -- C   580       -0.09      5.37202
 C   230 -- C   525       -0.09      5.37202
 C   229 -- C   579       -0.09      5.37202
 C   229 -- C   524       -0.09      5.37202
 C   228 -- C   578       -0.09      5.37202
 C    52 -- C   332       -0.09      5.37202
 C   228 -- C   523       -0.09      5.37202
 C   227 -- C   577       -0.09      5.37202
 C   227 -- C   522       -0.09      5.37202
 C   226 -- C   576       -0.09      5.37202
 C   226 -- C   521       -0.09      5.37202
 C    51 -- C   331       -0.09      5.37202
 C   220 -- C   515       -0.09      5.37202
 C   219 -- C   514       -0.09      5.37202
 C   218 -- C   513       -0.09      5.37202
 C   217 -- C   512       -0.09      5.37202
 C   216 -- C   511       -0.09      5.37202
 C   195 -- C   540       -0.09      5.37202
 C   195 -- C   500       -0.09      5.37202
 C   194 -- C   539       -0.09      5.37202
 C   194 -- C   499       -0.09      5.37202
 C   193 -- C   538       -0.09      5.37202
 C   193 -- C   498       -0.09      5.37202
 C   192 -- C   537       -0.09      5.37202
 C   192 -- C   497       -0.09      5.37202
 C   191 -- C   536       -0.09      5.37202
 C   191 -- C   496       -0.09      5.37202
 C   180 -- C   515       -0.09      5.37202
 C   179 -- C   514       -0.09      5.37202
 C   178 -- C   513       -0.09      5.37202
 C   177 -- C   512       -0.09      5.37202
 C   176 -- C   511       -0.09      5.37202
 C   150 -- C   440       -0.09      5.37202
 C   149 -- C   439       -0.09      5.37202
 C   148 -- C   438       -0.09      5.37202
 C   147 -- C   437       -0.09      5.37202
 C   146 -- C   436       -0.09      5.37202
 C   135 -- C   460       -0.09      5.37202
 C   134 -- C   459       -0.09      5.37202
 C   133 -- C   458       -0.09      5.37202
 C   132 -- C   457       -0.09      5.37202
 C   131 -- C   456       -0.09      5.37202
 C    11 -- C   331       -0.09      5.37202
 C    95 -- C   425       -0.09      5.37202
 C    94 -- C   424       -0.09      5.37202
 C    93 -- C   423       -0.09      5.37202
 C    92 -- C   422       -0.09      5.37202
 C    91 -- C   421       -0.09      5.37202
 C    85 -- C   355       -0.09      5.37202
 C    40 -- C   365       -0.09      5.37202
 C    84 -- C   354       -0.09      5.37202
 C    83 -- C   353       -0.09      5.37202
 C    82 -- C   352       -0.09      5.37202
 C    39 -- C   364       -0.09      5.37202
 C    81 -- C   351       -0.09      5.37202
 C    38 -- C   363       -0.09      5.37202
 C    37 -- C   362       -0.09      5.37202
 C    36 -- C   361       -0.09      5.37202
 C    15 -- C   335       -0.09      5.37202
 C    65 -- C   345       -0.09      5.37202
 C    64 -- C   344       -0.09      5.37202
 C    63 -- C   343       -0.09      5.37202
 C    30 -- C   325       -0.09      5.37202
 C    62 -- C   342       -0.09      5.37202
 C    14 -- C   334       -0.09      5.37202
 C    61 -- C   341       -0.09      5.37202
 C    29 -- C   324       -0.09      5.37202
 C    28 -- C   323       -0.09      5.37202
 C    13 -- C   333       -0.09      5.37202
 C    27 -- C   322       -0.09      5.37202
 C   120 -- C   395       -0.09      5.37202
 C    55 -- C   385       -0.09      5.37202
 C   119 -- C   394       -0.09      5.37202
 C   118 -- C   393       -0.09      5.37202
 C   117 -- C   392       -0.09      5.37202
 C    54 -- C   384       -0.09      5.37202
 C    26 -- C   321       -0.09      5.37202
 C   116 -- C   391       -0.09      5.37202
 C    53 -- C   383       -0.09      5.37202
 C    12 -- C   332       -0.09      5.37202
 C    52 -- C   382       -0.09      5.37202
 C    51 -- C   381       -0.09      5.37202
 C   106 -- C   436       -0.09      5.37202
 C   106 -- C   376       -0.09      5.37202
 C    80 -- C   410       -0.09      5.37202
 C    79 -- C   409       -0.09      5.37202
 C    78 -- C   408       -0.09      5.37202
 C    77 -- C   407       -0.09      5.37202
 C    76 -- C   406       -0.09      5.37202
 C   135 -- C   410       -0.09      5.37202
 C   134 -- C   409       -0.09      5.37202
 C   133 -- C   408       -0.09      5.37202
 C   132 -- C   407       -0.09      5.37202
 C   131 -- C   406       -0.09      5.37202
 C   110 -- C   440       -0.09      5.37202
 C   110 -- C   380       -0.09      5.37202
 C   109 -- C   439       -0.09      5.37202
 C   109 -- C   379       -0.09      5.37202
 C   108 -- C   438       -0.09      5.37202
 C   108 -- C   378       -0.09      5.37202
 C   107 -- C   437       -0.09      5.37202
 C   107 -- C   377       -0.09      5.37202
 C   215 -- C   635       -0.09      5.38000
 C   214 -- C   634       -0.09      5.38000
 C   213 -- C   633       -0.09      5.38000
 C   212 -- C   632       -0.09      5.38000
 C   211 -- C   631       -0.09      5.38000
 C   190 -- C   620       -0.09      5.38000
 C   189 -- C   619       -0.09      5.38000
 C   188 -- C   618       -0.09      5.38000
 C   187 -- C   617       -0.09      5.38000
 C   186 -- C   616       -0.09      5.38000
 C   175 -- C   595       -0.09      5.38000
 C   174 -- C   594       -0.09      5.38000
 C   173 -- C   593       -0.09      5.38000
 C   172 -- C   592       -0.09      5.38000
 C   171 -- C   591       -0.09      5.38000
 C   245 -- C   640       -0.09      5.38000
 C   244 -- C   639       -0.09      5.38000
 C   243 -- C   638       -0.09      5.38000
 C   242 -- C   637       -0.09      5.38000
 C   241 -- C   636       -0.09      5.38000
==================================================


=================== Orbital energy and occupancy information ===================

      Total number of orbitals:    2560
        Occupancy sum (kernel):    1279.999999999
   Occupancy sum (eigenvalues):    1279.999999999
                 HOMO-LUMO gap:       0.065701860 Eh
                 Mid-gap level:       0.222682270 Eh

                        Orbital | Energy (Eh) | Occupancy
                            1    -0.498056606   1.0000000
                        .......   ...........   .........
                         1271     0.185185771   0.9999888
                         1272     0.185225022   0.9999887
                         1273     0.185656324   0.9999870
                         1274     0.185695540   0.9999869
                         1275     0.188374099   0.9999694
                         1276     0.188385132   0.9999693
                         1277     0.188840892   0.9999646
                         1278     0.188852030   0.9999645
                         1279     0.189368338   0.9999582
                         1280     0.189831340   0.9999516
                        ....... -- gap at 0K -- .........
                         1281     0.255533200   0.0000201
                         1282     0.255536291   0.0000201
                         1283     0.255782594   0.0000186
                         1284     0.255785275   0.0000185
                         1285     0.255918687   0.0000178
                         1286     0.255940871   0.0000177
                         1287     0.256179191   0.0000164
                         1288     0.256201115   0.0000163
                         1289     0.256229202   0.0000162
                         1290     0.256337106   0.0000156
                        .......   ...........   .........
                         2560     1.111185719   0.0000000

================================================================================

===================== Writing canonical molecular orbitals =====================
| Orbital  Energy (eV)  Norm     |
| HOMO      5.16557361  1.000000 | Writing "3.6491432_GO_manual_4x64graphite_HOMO.cube" ... done
Writing "3.6491432_GO_manual_4x64graphite_HOMO.dx" ... done
| LUMO      6.95341219  1.000000 | Writing "3.6491432_GO_manual_4x64graphite_LUMO.cube" ... done
Writing "3.6491432_GO_manual_4x64graphite_LUMO.dx" ... done
================================================================================
 
===================== Density of States (DOS) calculation ======================
Writing "3.6491432_GO_manual_4x64graphite_DOS.txt" ...  done
================================================================================
 
Writing bands to file "3.6491432_GO_manual_4x64graphite.val_bands" ... done
 
================ Projected Density of States (pDOS) calculation ================
 
Constructing AM resolved functions  ...... done
Writing NGWF plot files in formats: CUBE DX ...  done
 
Performing overlap integrals ...  done
 
Computing pDOS weights ...  done
 
All bands spilling parameter =   3.22 %
Occupancy-weighted spilling parameter =   0.91 %
 
 => Outputting data for OptaDOS <=
 
Writing pDOS weights to file "3.6491432_GO_manual_4x64graphite.val_pdos_bin" ... done
 
Writing band gradients to file "3.6491432_GO_manual_4x64graphite.val_dome_bin" ... done
 
Writing Castep output cell file to "3.6491432_GO_manual_4x64graphite-out.cell" ... done
 
 => Computing Gaussian smeared pDOS <= 
Writing "3.6491432_GO_manual_4x64graphite_PDOS.txt" ...  done
 
 => Computing Occupancy-weighted Gaussian smeared pDOS <= 
Writing "3.6491432_GO_manual_4x64graphite_occ_PDOS.txt" ...  done
  => Band centres: 
 S band centre of group 1:  -13.804722 eV
 P band centre of group 1:   -6.690800 eV
  Band centres done. <=
  => Integrated number of electrons in each AM band: 
 S num electrons of group 1:  574.107543
 P num electrons of group 1: 1962.682128
  Integrated number of electrons done. <=
================================================================================

------------------------------ TIMING INFORMATION ------------------------------
AVERAGE TIME:    3310.940s on     40 node(s)                                    
TOTAL TIME:      3310.941s on     40 node(s)                                    
================= AVERAGE TIMINGS FROM ALL NODES (CUMULATIVE) ==================
|| TAG                                    #calls    cpu time   %total  Gflops ||
|| work_imbalance                       :     1        0.00s   0.000%  ------ ||
|| paw_tcore_hartree_on_grid            :     1        0.00s   0.000%  ------ ||
|| paw_tcore_density                    :     1        0.01s   0.000%  ------ ||
|| paw_sphere_density_on_grid           :     1        0.01s   0.000%  ------ ||
|| sparse_set_to_garbage                :   147        0.02s   0.001%  ------ ||
|| paw_dij_hartree                      :   299        0.04s   0.001%  ------ ||
|| pseudo_make_structure_factor         :     1        0.06s   0.002%  ------ ||
|| basis_extract_function_from_box      :  1664        0.07s   0.002%  ------ ||
|| paw_species_calc_proj_prec_mat       :     1        0.12s   0.004%  ------ ||
|| paw_dataset_init                     :     1        0.15s   0.004%  ------ ||
|| density_init_guess_real              :     1        0.19s   0.006%  ------ ||
|| restart_kernel_write                 :    14        0.61s   0.019%  ------ ||
|| ngwfs_initialise_from_radial         :     2        0.67s   0.020%  ------ ||
|| sparse_init                          :     1        0.97s   0.029%  ------ ||
|| dense_normal_eigensolve              :     1        1.10s   0.033%  ------ ||
|| hartree_on_grid                      :   224        1.37s   0.042%  ------ ||
|| projectors_init_fftbox_recip         :   131        2.55s   0.077%  ------ ||
|| ewald_calculate_energy               :     1        3.06s   0.092%  ------ ||
|| fourier_apply_box_pair               :  2464        4.08s   0.123% 559.651 ||
|| basis_copy_function_to_box           : 21376        4.57s   0.138%  ------ ||
|| augmentation_screen_dij              :   229        4.95s   0.149%  ------ ||
|| sw_init                              :     1        6.73s   0.203%  ------ ||
|| sparse_embed_hotelling_invert_embed  :    25        7.25s   0.219%  ------ ||
|| ngwf_gradient_coeffs                 :    13        9.09s   0.274%  ------ ||
|| fourier_apply_cell_backward          :  6915       14.82s   0.448%  59.938 ||
|| sparse_trace                         :  2704       15.39s   0.465%  ------ ||
|| fourier_apply_cell_forward           :  6468       15.42s   0.466%  53.876 ||
|| cell_grid_extract_box_real           :  9052       15.90s   0.480%  ------ ||
|| cell_grid_deposit_box_real           : 28848       20.14s   0.608%  ------ ||
|| paw_dij_xc                           :   299       20.25s   0.611%  ------ ||
|| aug_nonlocal_mat                     :   286       29.59s   0.894%  ------ ||
|| augmentation_density_on_grid         :   224       38.61s   1.166%  ------ ||
|| density_fftbox_deposit_to_cell       : 14336       41.69s   1.259%  ------ ||
|| hamiltonian_energy_components        :     3       46.96s   1.418%  ------ ||
|| function_ops_brappd_ketppd           :    52       53.14s   1.605%  ------ ||
|| eigenstates_pdos                     :     1       55.02s   1.662%  ------ ||
|| projectors_func_ovlp_box             :    26       58.79s   1.776%  ------ ||
|| eigenstates_calculate                :     1       59.35s   1.793%  ------ ||
|| nlxc_vdw_energy                      :   446       62.44s   1.886%  ------ ||
|| xc_energy_potential                  :   223       69.21s   2.090%  ------ ||
|| integrals_kinetic                    :    25       81.05s   2.448%  ------ ||
|| dense_eigensolve                     :   195      100.10s   3.023%  ------ ||
|| properties_calculate                 :     1      106.13s   3.205%  ------ ||
|| sparse_product                       :  2751      108.38s   3.273%  ------ ||
|| potential_apply_to_ngwf_batch        :   284      113.12s   3.417%  ------ ||
|| restart_ngwfs_tightbox_output        :    12      129.08s   3.899%  ------ ||
|| basis_dot_function_with_box          : 6.640M     183.04s   5.528%  ------ ||
|| fourier_apply_box                    : 67392      209.38s   6.324% 977.555 ||
|| edft_diag_ngwf_ham                   :   194      219.86s   6.641%  ------ ||
|| integrals_locpot_mat_els_batch       :   284      237.54s   7.174%  ------ ||
|| projectors_gradient_batch            :    52      237.64s   7.177%  ------ ||
|| density_fftbox_interpolate_multiply  : 14336      277.90s   8.393%  ------ ||
|| projectors_grad_precond_batch        :    52      325.07s   9.818%  ------ ||
|| integrals_locpot_dbl_grid            :    71      351.94s  10.629%  ------ ||
|| density_batch_interp_deposit         :   896      356.15s  10.757%  ------ ||
|| edft_apply_smearing_operator         :   194      426.28s  12.875%  ------ ||
|| basis_add_function_to_box            : 18.51M     492.62s  14.879%  ------ ||
|| ngwf_gradient_build_batch            :    52      602.28s  18.191%  ------ ||
|| density_batch_row_sums               :   896      675.19s  20.393%  ------ ||
|| ngwf_gradient_batch                  :    52      793.62s  23.970%  ------ ||
|| ngwf_gradient_lnv                    :    13      829.13s  25.042%  ------ ||
|| density_on_dbl_grid                  :   224     1041.46s  31.455%  ------ ||
|| hamiltonian_lhxc_calculate           :   219     1126.38s  34.020%  ------ ||
|| edft_calculate                       :    13     1886.39s  56.975%  ------ ||
|| ngwf_cg_optimise                     :     1     3179.14s  96.019%  ------ ||
|| total_time                           :     1     3310.94s 100.000%  ------ ||
================================================================================
Overhead of generating timer report: 
- 0 ms averaging over threads,
- 5 ms ensuring consistency across MPI ranks,
- 0 ms printing in order.

Job completed: 29-02-2020 08:53 (-0000)

