 +---------------------------------------------------------------+
 |                                                               |
 |        ####### #     # ####### ####### ####### ######         |
 |        #     # ##    # #          #    #       #     #        |
 |        #     # # #   # #          #    #       #     #        |
 |        #     # #  #  # #####      #    #####   ######         |
 |        #     # #   # # #          #    #       #              |
 |        #     # #    ## #          #    #       #              |
 |        ####### #     # #######    #    ####### #              |
 |                                                               |
 |        Linear-Scaling Ab Initio Total Energy Program          |
 |                                                               |
 |          Release for academic collaborators of ODG            |
 |                                             Version 5.3.2.12  |
 |                                                               |
 +---------------------------------------------------------------+
 |                                                               |
 |  Authors:                                                     |
 |  Jacek Dziedzic, Peter D. Haynes, Nicholas D. M. Hine,        |
 |  Arash. A. Mostofi, Mike C. Payne and Chris-Kriton Skylaris   |
 |                                                               |
 |  Contributors:                                                |
 |  J. Aarons, L. Andrinopoulos, P. W. Avraam, R. A. Bell,       |
 |  A. Bhandari, G. A. Bramley, R. J. Charlton, S. J. Clark,     |
 |  R. J. Clements, G. C. Constantinescu, F. Corsetti,           |
 |  N. Corsini, O. Dieguez, S. M. M. Dubois, K. K. B. Duff,      |
 |  J. M. Escartin, A. Greco, H. Helal, Q. O. Hill, L. P. Lee,   |
 |  J.-H. Li, E. B. Linscott, G. Moynihan, D. D. O`Regan,        |
 |  O. K. Okan, M. J. S. Phipps, C. J. Pickard,                  |
 |  J. C. A. Prentice, M. I. J. Probert, L. E. Ratcliff,         |
 |  M. Robinson, A. Ruiz Serrano, J. S. Spencer, E. W. Tait,     |
 |  G. Teobaldi, D. Turban, V. Vitale, K. A. Wilkinson,          |
 |  C. Weber, J. C. Womack, N. Yeung and T. J. Zuehlsdorff       |
 |                                                               |
 |                                   Copyright (c) 2004-2020     |
 |                                                               |
 |  Please cite:                                                 |
 |  "Introducing ONETEP: Linear-scaling density functional       |
 |   simulations on parallel computers".                         |
 |   C.-K. Skylaris, P. D. Haynes, A. A. Mostofi, M. C. Payne.   |
 |   J. Chem. Phys. 122 084119 (2005).                           |
 |                                                               |
 |          in all publications arising from your use of ONETEP. |
 |                                                               |
 +---------------------------------------------------------------+
 |                                                               |
 |   ONETEP is based on developments described in the following  |
 |   publications:                                               |
 |                                                               |
 |  "Nonorthogonal generalized Wannier function pseudopotential  |
 |   plane-wave method".                                         |
 |   C.-K. Skylaris, A. A. Mostofi, P. D. Haynes, O. Dieguez,    |
 |   M. C. Payne.                                                |
 |   Phys. Rev. B 66 035119 (2002).                              |
 |                                                               |
 |  "Preconditioned iterative minimization for linear-scaling    |
 |   electronic structure calculations".                         |
 |   A. A. Mostofi, P. D. Haynes, C.-K. Skylaris, M. C. Payne.   |
 |   J. Chem. Phys. 119(17), pp.8842-8848 (2003).                |
 |                                                               |
 |  "Total-energy calculations on a real space grid with         |
 |   localized functions and a plane-wave basis".                |
 |   A. A. Mostofi, C.-K. Skylaris, P. D. Haynes, M. C. Payne.   |
 |   Comput. Phys. Commun. 147, pp.788-802 (2002).               |
 |                                                               |
 |  "Accurate kinetic energy evaluation in electronic structure  |
 |   calculations with localized functions on real space grids"  |
 |   C.-K. Skylaris, A. A. Mostofi, P. D. Haynes, C. J. Pickard, |
 |   M. C. Payne.                                                |
 |   Comput. Phys. Commun. 140, pp.315-322 (2001).               |
 |                                                               |
 |  "Accurate ionic forces and geometry optimization in linear-  |
 |   scaling density-functional theory with local orbitals"      |
 |   N. D. M. Hine, M. Robinson, P. D. Haynes, C.-K. Skylaris,   |
 |   M. C. Payne, and A. A. Mostofi.                             |
 |   Phys. Rev. B 83 195102 (2011).                              |
 |                                                               |
 +---------------------------------------------------------------+

Job started: 05-03-2020 15:05 (-0000)
 
Reading parameters from file "4.96387_GO_manual_4x64graphite.dat" ...

WARNING: "cutoff_energy" not specified, but "psinc_spacing" specified.
         Using the latter to set the KE cutoff energy to  732.32021eV,
         thus *overriding* the default.

... done

If your calculation crashes here, before "Checking processes and threads..."
is displayed, then your stack size is insufficient.
If so, use "ulimit -s unlimited" at runtime.
You can disable this check with "check_stack_size F".

Checking processes and threads...
   Determining the default number of threads...
      No default threads set at compilation time: defaulting to 1.
      OpenMP library call suggests 4 threads.
      Hybrid MPI-OpenMP compilation detected.
      Number of MPI processes > 1.
      OMP_NUM_THREADS environment variable present and
      its value matches the one obtained from the OpenMP library call.
      Using this value as default.
      Default threads: 4
      Default applies to threads_max and threads_num_fftboxes.
      Settings in the input file override this default.
   ... done

   Running with 40 MPI processes.
   There are 10 MPI processes running on the same node as the root process.
   Each MPI process is using: 
               1 threads for simulation cell FFTs.
               1 threads for parallel FFT box operations.
               4 threads for loops over batched FFT box operations.
               4 threads in other parallel regions.
... done

Basic input checks...
Resetting ngwf_cg_rotate to TRUE for EDFT calculations
... done

Reading geometry and species blocks from file "4.96387_GO_manual_4x64graphite.dat" ...
    
  PSINC grid spacing along a1 set to   0.511215680000a0 from input file.
  PSINC grid spacing along a2 set to   0.531284090000a0 from input file.
  PSINC grid spacing along a3 set to   0.507047250000a0 from input file.
  Number of PPD points along a3 set to 1.  This is 
  the default value, it may have been provided also in the input file.
... done
 Writing xyz coordinates to file "4.96387_GO_manual_4x64graphite.xyz" ... done


--------------------------------------------------------------------------------
---------------------------------- INPUT FILE ----------------------------------
--------------------------------------------------------------------------------

task : singlepoint                                                              
do_properties : true                                                            
dx_format T                                                                     
edft T                                                                          
output_detail VERBOSE                                                           
write_xyz T                                                                     
xc_functional OPTB88                                                            
PSINC_SPACING 0.51121568 0.53128409 0.50704725                                  
paw T                                                                           
pdos_max_l = 2                                                                  
dos_smear  0.1 eV                                                               
popn_calculate T                                                                
PDOS_PSEUDOATOMIC T                                                             
PDOS_REDUCE_SWS F                                                               
PDOS_CONSTRUCT_BASIS F                                                          
PDOS_LOWDIN T                                                                   
PDOS_ORTH_ATOM_BLOCKS F                                                         
PDOS_LCAO_OPTIMIZE F                                                            
pdos_optados_output T                                                           
homo_plot 0                                                                     
lumo_plot 0                                                                     
homo_dens_plot -1                                                               
lumo_dens_plot -1                                                               
%BLOCK SPECIES                                                                  
C C 6 4 9.0                                                                     
%ENDBLOCK SPECIES                                                               
%BLOCK SPECIES_POT                                                              
C "~/pp/paw/c_pbe_abinit.paw"                                                   
%ENDBLOCK SPECIES_POT                                                           
%BLOCK SPECIES_ATOMIC_SET                                                       
C "SOLVE conf=2s2 2p2"                                                          
%ENDBLOCK SPECIES_ATOMIC_SET                                                    
%BLOCK LATTICE_CART                                                             
32.21  0.00  0.00                                                               
0.00 18.59  0.00                                                                
0.00  0.00 93.80                                                                
%ENDBLOCK LATTICE_CART                                                          
%BLOCK POSITIONS_ABS                                                            
C  0.00  0.00  4.69                                                             
C  0.00  0.00 23.45                                                             
C  0.00  0.00 42.21                                                             
C  0.00  0.00 60.97                                                             
C  0.00  0.00 79.73                                                             
C  0.00  4.65  4.69                                                             
C  0.00  4.65 23.45                                                             
C  0.00  4.65 42.21                                                             
C  0.00  4.65 60.97                                                             
C  0.00  4.65 79.73                                                             
C  4.03  2.32  4.69                                                             
C  4.03  2.32 23.45                                                             
C  4.03  2.32 42.21                                                             
C  4.03  2.32 60.97                                                             
C  4.03  2.32 79.73                                                             
C  8.05  0.00  4.69                                                             
C  8.05  0.00 23.45                                                             
C  8.05  0.00 42.21                                                             
C  8.05  0.00 60.97                                                             
C  8.05  0.00 79.73                                                             
C  0.00  9.30  4.69                                                             
C  0.00  9.30 23.45                                                             
C  0.00  9.30 42.21                                                             
C  0.00  9.30 60.97                                                             
C  0.00  9.30 79.73                                                             
C  4.03  6.97  4.69                                                             
C  4.03  6.97 23.45                                                             
C  4.03  6.97 42.21                                                             
C  4.03  6.97 60.97                                                             
C  4.03  6.97 79.73                                                             
C  8.05  4.65  4.69                                                             
C  8.05  4.65 23.45                                                             
C  8.05  4.65 42.21                                                             
C  8.05  4.65 60.97                                                             
C  8.05  4.65 79.73                                                             
C 12.08  2.32  4.69                                                             
C 12.08  2.32 23.45                                                             
C 12.08  2.32 42.21                                                             
C 12.08  2.32 60.97                                                             
C 12.08  2.32 79.73                                                             
C 16.10  0.00  4.69                                                             
C 16.10  0.00 23.45                                                             
C 16.10  0.00 42.21                                                             
C 16.10  0.00 60.97                                                             
C 16.10  0.00 79.73                                                             
C  0.00 13.95  4.69                                                             
C  0.00 13.95 23.45                                                             
C  0.00 13.95 42.21                                                             
C  0.00 13.95 60.97                                                             
C  0.00 13.95 79.73                                                             
C  4.03 11.62  4.69                                                             
C  4.03 11.62 23.45                                                             
C  4.03 11.62 42.21                                                             
C  4.03 11.62 60.97                                                             
C  4.03 11.62 79.73                                                             
C  8.05  9.30  4.69                                                             
C  8.05  9.30 23.45                                                             
C  8.05  9.30 42.21                                                             
C  8.05  9.30 60.97                                                             
C  8.05  9.30 79.73                                                             
C 12.08  6.97  4.69                                                             
C 12.08  6.97 23.45                                                             
C 12.08  6.97 42.21                                                             
C 12.08  6.97 60.97                                                             
C 12.08  6.97 79.73                                                             
C 16.10  4.65  4.69                                                             
C 16.10  4.65 23.45                                                             
C 16.10  4.65 42.21                                                             
C 16.10  4.65 60.97                                                             
C 16.10  4.65 79.73                                                             
C 20.13  2.32  4.69                                                             
C 20.13  2.32 23.45                                                             
C 20.13  2.32 42.21                                                             
C 20.13  2.32 60.97                                                             
C 20.13  2.32 79.73                                                             
C 24.16  0.00  4.69                                                             
C 24.16  0.00 23.45                                                             
C 24.16  0.00 42.21                                                             
C 24.16  0.00 60.97                                                             
C 24.16  0.00 79.73                                                             
C  4.03 16.27  4.69                                                             
C  4.03 16.27 23.45                                                             
C  4.03 16.27 42.21                                                             
C  4.03 16.27 60.97                                                             
C  4.03 16.27 79.73                                                             
C  8.05 13.95  4.69                                                             
C  8.05 13.95 23.45                                                             
C  8.05 13.95 42.21                                                             
C  8.05 13.95 60.97                                                             
C  8.05 13.95 79.73                                                             
C 12.08 11.62  4.69                                                             
C 12.08 11.62 23.45                                                             
C 12.08 11.62 42.21                                                             
C 12.08 11.62 60.97                                                             
C 12.08 11.62 79.73                                                             
C 16.10  9.30  4.69                                                             
C 16.10  9.30 23.45                                                             
C 16.10  9.30 42.21                                                             
C 16.10  9.30 60.97                                                             
C 16.10  9.30 79.73                                                             
C 20.13  6.97  4.69                                                             
C 20.13  6.97 23.45                                                             
C 20.13  6.97 42.21                                                             
C 20.13  6.97 60.97                                                             
C 20.13  6.97 79.73                                                             
C 24.16  4.65  4.69                                                             
C 24.16  4.65 23.45                                                             
C 24.16  4.65 42.21                                                             
C 24.16  4.65 60.97                                                             
C 24.16  4.65 79.73                                                             
C 28.18  2.32  4.69                                                             
C 28.18  2.32 23.45                                                             
C 28.18  2.32 42.21                                                             
C 28.18  2.32 60.97                                                             
C 28.18  2.32 79.73                                                             
C 12.08 16.27  4.69                                                             
C 12.08 16.27 23.45                                                             
C 12.08 16.27 42.21                                                             
C 12.08 16.27 60.97                                                             
C 12.08 16.27 79.73                                                             
C 16.10 13.95  4.69                                                             
C 16.10 13.95 23.45                                                             
C 16.10 13.95 42.21                                                             
C 16.10 13.95 60.97                                                             
C 16.10 13.95 79.73                                                             
C 20.13 11.62  4.69                                                             
C 20.13 11.62 23.45                                                             
C 20.13 11.62 42.21                                                             
C 20.13 11.62 60.97                                                             
C 20.13 11.62 79.73                                                             
C 24.16  9.30  4.69                                                             
C 24.16  9.30 23.45                                                             
C 24.16  9.30 42.21                                                             
C 24.16  9.30 60.97                                                             
C 24.16  9.30 79.73                                                             
C 28.18  6.97  4.69                                                             
C 28.18  6.97 23.45                                                             
C 28.18  6.97 42.21                                                             
C 28.18  6.97 60.97                                                             
C 28.18  6.97 79.73                                                             
C 20.13 16.27  4.69                                                             
C 20.13 16.27 23.45                                                             
C 20.13 16.27 42.21                                                             
C 20.13 16.27 60.97                                                             
C 20.13 16.27 79.73                                                             
C 24.16 13.95  4.69                                                             
C 24.16 13.95 23.45                                                             
C 24.16 13.95 42.21                                                             
C 24.16 13.95 60.97                                                             
C 24.16 13.95 79.73                                                             
C 28.18 11.62  4.69                                                             
C 28.18 11.62 23.45                                                             
C 28.18 11.62 42.21                                                             
C 28.18 11.62 60.97                                                             
C 28.18 11.62 79.73                                                             
C 28.18 16.27  4.69                                                             
C 28.18 16.27 23.45                                                             
C 28.18 16.27 42.21                                                             
C 28.18 16.27 60.97                                                             
C 28.18 16.27 79.73                                                             
C  0.00  0.00 14.07                                                             
C  0.00  0.00 32.83                                                             
C  0.00  0.00 51.59                                                             
C  0.00  0.00 70.35                                                             
C  0.00  0.00 89.11                                                             
C  0.00  4.65 14.07                                                             
C  0.00  4.65 32.83                                                             
C  0.00  4.65 51.59                                                             
C  0.00  4.65 70.35                                                             
C  0.00  4.65 89.11                                                             
C  4.03  2.32 14.07                                                             
C  4.03  2.32 32.83                                                             
C  4.03  2.32 51.59                                                             
C  4.03  2.32 70.35                                                             
C  4.03  2.32 89.11                                                             
C  8.05  0.00 14.07                                                             
C  8.05  0.00 32.83                                                             
C  8.05  0.00 51.59                                                             
C  8.05  0.00 70.35                                                             
C  8.05  0.00 89.11                                                             
C  0.00  9.30 14.07                                                             
C  0.00  9.30 32.83                                                             
C  0.00  9.30 51.59                                                             
C  0.00  9.30 70.35                                                             
C  0.00  9.30 89.11                                                             
C  4.03  6.97 14.07                                                             
C  4.03  6.97 32.83                                                             
C  4.03  6.97 51.59                                                             
C  4.03  6.97 70.35                                                             
C  4.03  6.97 89.11                                                             
C  8.05  4.65 14.07                                                             
C  8.05  4.65 32.83                                                             
C  8.05  4.65 51.59                                                             
C  8.05  4.65 70.35                                                             
C  8.05  4.65 89.11                                                             
C 12.08  2.32 14.07                                                             
C 12.08  2.32 32.83                                                             
C 12.08  2.32 51.59                                                             
C 12.08  2.32 70.35                                                             
C 12.08  2.32 89.11                                                             
C 16.10  0.00 14.07                                                             
C 16.10  0.00 32.83                                                             
C 16.10  0.00 51.59                                                             
C 16.10  0.00 70.35                                                             
C 16.10  0.00 89.11                                                             
C  0.00 13.95 14.07                                                             
C  0.00 13.95 32.83                                                             
C  0.00 13.95 51.59                                                             
C  0.00 13.95 70.35                                                             
C  0.00 13.95 89.11                                                             
C  4.03 11.62 14.07                                                             
C  4.03 11.62 32.83                                                             
C  4.03 11.62 51.59                                                             
C  4.03 11.62 70.35                                                             
C  4.03 11.62 89.11                                                             
C  8.05  9.30 14.07                                                             
C  8.05  9.30 32.83                                                             
C  8.05  9.30 51.59                                                             
C  8.05  9.30 70.35                                                             
C  8.05  9.30 89.11                                                             
C 12.08  6.97 14.07                                                             
C 12.08  6.97 32.83                                                             
C 12.08  6.97 51.59                                                             
C 12.08  6.97 70.35                                                             
C 12.08  6.97 89.11                                                             
C 16.10  4.65 14.07                                                             
C 16.10  4.65 32.83                                                             
C 16.10  4.65 51.59                                                             
C 16.10  4.65 70.35                                                             
C 16.10  4.65 89.11                                                             
C 20.13  2.32 14.07                                                             
C 20.13  2.32 32.83                                                             
C 20.13  2.32 51.59                                                             
C 20.13  2.32 70.35                                                             
C 20.13  2.32 89.11                                                             
C 24.16  0.00 14.07                                                             
C 24.16  0.00 32.83                                                             
C 24.16  0.00 51.59                                                             
C 24.16  0.00 70.35                                                             
C 24.16  0.00 89.11                                                             
C  4.03 16.27 14.07                                                             
C  4.03 16.27 32.83                                                             
C  4.03 16.27 51.59                                                             
C  4.03 16.27 70.35                                                             
C  4.03 16.27 89.11                                                             
C  8.05 13.95 14.07                                                             
C  8.05 13.95 32.83                                                             
C  8.05 13.95 51.59                                                             
C  8.05 13.95 70.35                                                             
C  8.05 13.95 89.11                                                             
C 12.08 11.62 14.07                                                             
C 12.08 11.62 32.83                                                             
C 12.08 11.62 51.59                                                             
C 12.08 11.62 70.35                                                             
C 12.08 11.62 89.11                                                             
C 16.10  9.30 14.07                                                             
C 16.10  9.30 32.83                                                             
C 16.10  9.30 51.59                                                             
C 16.10  9.30 70.35                                                             
C 16.10  9.30 89.11                                                             
C 20.13  6.97 14.07                                                             
C 20.13  6.97 32.83                                                             
C 20.13  6.97 51.59                                                             
C 20.13  6.97 70.35                                                             
C 20.13  6.97 89.11                                                             
C 24.16  4.65 14.07                                                             
C 24.16  4.65 32.83                                                             
C 24.16  4.65 51.59                                                             
C 24.16  4.65 70.35                                                             
C 24.16  4.65 89.11                                                             
C 28.18  2.32 14.07                                                             
C 28.18  2.32 32.83                                                             
C 28.18  2.32 51.59                                                             
C 28.18  2.32 70.35                                                             
C 28.18  2.32 89.11                                                             
C 12.08 16.27 14.07                                                             
C 12.08 16.27 32.83                                                             
C 12.08 16.27 51.59                                                             
C 12.08 16.27 70.35                                                             
C 12.08 16.27 89.11                                                             
C 16.10 13.95 14.07                                                             
C 16.10 13.95 32.83                                                             
C 16.10 13.95 51.59                                                             
C 16.10 13.95 70.35                                                             
C 16.10 13.95 89.11                                                             
C 20.13 11.62 14.07                                                             
C 20.13 11.62 32.83                                                             
C 20.13 11.62 51.59                                                             
C 20.13 11.62 70.35                                                             
C 20.13 11.62 89.11                                                             
C 24.16  9.30 14.07                                                             
C 24.16  9.30 32.83                                                             
C 24.16  9.30 51.59                                                             
C 24.16  9.30 70.35                                                             
C 24.16  9.30 89.11                                                             
C 28.18  6.97 14.07                                                             
C 28.18  6.97 32.83                                                             
C 28.18  6.97 51.59                                                             
C 28.18  6.97 70.35                                                             
C 28.18  6.97 89.11                                                             
C 20.13 16.27 14.07                                                             
C 20.13 16.27 32.83                                                             
C 20.13 16.27 51.59                                                             
C 20.13 16.27 70.35                                                             
C 20.13 16.27 89.11                                                             
C 24.16 13.95 14.07                                                             
C 24.16 13.95 32.83                                                             
C 24.16 13.95 51.59                                                             
C 24.16 13.95 70.35                                                             
C 24.16 13.95 89.11                                                             
C 28.18 11.62 14.07                                                             
C 28.18 11.62 32.83                                                             
C 28.18 11.62 51.59                                                             
C 28.18 11.62 70.35                                                             
C 28.18 11.62 89.11                                                             
C 28.18 16.27 14.07                                                             
C 28.18 16.27 32.83                                                             
C 28.18 16.27 51.59                                                             
C 28.18 16.27 70.35                                                             
C 28.18 16.27 89.11                                                             
C  1.34  2.32  4.69                                                             
C  1.34  2.32 23.45                                                             
C  1.34  2.32 42.21                                                             
C  1.34  2.32 60.97                                                             
C  1.34  2.32 79.73                                                             
C  5.37  0.00  4.69                                                             
C  5.37  0.00 23.45                                                             
C  5.37  0.00 42.21                                                             
C  5.37  0.00 60.97                                                             
C  5.37  0.00 79.73                                                             
C  1.34  6.97  4.69                                                             
C  1.34  6.97 23.45                                                             
C  1.34  6.97 42.21                                                             
C  1.34  6.97 60.97                                                             
C  1.34  6.97 79.73                                                             
C  5.37  4.65  4.69                                                             
C  5.37  4.65 23.45                                                             
C  5.37  4.65 42.21                                                             
C  5.37  4.65 60.97                                                             
C  5.37  4.65 79.73                                                             
C  9.39  2.32  4.69                                                             
C  9.39  2.32 23.45                                                             
C  9.39  2.32 42.21                                                             
C  9.39  2.32 60.97                                                             
C  9.39  2.32 79.73                                                             
C 13.42  0.00  4.69                                                             
C 13.42  0.00 23.45                                                             
C 13.42  0.00 42.21                                                             
C 13.42  0.00 60.97                                                             
C 13.42  0.00 79.73                                                             
C  1.34 11.62  4.69                                                             
C  1.34 11.62 23.45                                                             
C  1.34 11.62 42.21                                                             
C  1.34 11.62 60.97                                                             
C  1.34 11.62 79.73                                                             
C  5.37  9.30  4.69                                                             
C  5.37  9.30 23.45                                                             
C  5.37  9.30 42.21                                                             
C  5.37  9.30 60.97                                                             
C  5.37  9.30 79.73                                                             
C  9.39  6.97  4.69                                                             
C  9.39  6.97 23.45                                                             
C  9.39  6.97 42.21                                                             
C  9.39  6.97 60.97                                                             
C  9.39  6.97 79.73                                                             
C 13.42  4.65  4.69                                                             
C 13.42  4.65 23.45                                                             
C 13.42  4.65 42.21                                                             
C 13.42  4.65 60.97                                                             
C 13.42  4.65 79.73                                                             
C 17.45  2.32  4.69                                                             
C 17.45  2.32 23.45                                                             
C 17.45  2.32 42.21                                                             
C 17.45  2.32 60.97                                                             
C 17.45  2.32 79.73                                                             
C 21.47  0.00  4.69                                                             
C 21.47  0.00 23.45                                                             
C 21.47  0.00 42.21                                                             
C 21.47  0.00 60.97                                                             
C 21.47  0.00 79.73                                                             
C  1.34 16.27  4.69                                                             
C  1.34 16.27 23.45                                                             
C  1.34 16.27 42.21                                                             
C  1.34 16.27 60.97                                                             
C  1.34 16.27 79.73                                                             
C  5.37 13.95  4.69                                                             
C  5.37 13.95 23.45                                                             
C  5.37 13.95 42.21                                                             
C  5.37 13.95 60.97                                                             
C  5.37 13.95 79.73                                                             
C  9.39 11.62  4.69                                                             
C  9.39 11.62 23.45                                                             
C  9.39 11.62 42.21                                                             
C  9.39 11.62 60.97                                                             
C  9.39 11.62 79.73                                                             
C 13.42  9.30  4.69                                                             
C 13.42  9.30 23.45                                                             
C 13.42  9.30 42.21                                                             
C 13.42  9.30 60.97                                                             
C 13.42  9.30 79.73                                                             
C 17.45  6.97  4.69                                                             
C 17.45  6.97 23.45                                                             
C 17.45  6.97 42.21                                                             
C 17.45  6.97 60.97                                                             
C 17.45  6.97 79.73                                                             
C 21.47  4.65  4.69                                                             
C 21.47  4.65 23.45                                                             
C 21.47  4.65 42.21                                                             
C 21.47  4.65 60.97                                                             
C 21.47  4.65 79.73                                                             
C 25.50  2.32  4.69                                                             
C 25.50  2.32 23.45                                                             
C 25.50  2.32 42.21                                                             
C 25.50  2.32 60.97                                                             
C 25.50  2.32 79.73                                                             
C 29.52  0.00  4.69                                                             
C 29.52  0.00 23.45                                                             
C 29.52  0.00 42.21                                                             
C 29.52  0.00 60.97                                                             
C 29.52  0.00 79.73                                                             
C  9.39 16.27  4.69                                                             
C  9.39 16.27 23.45                                                             
C  9.39 16.27 42.21                                                             
C  9.39 16.27 60.97                                                             
C  9.39 16.27 79.73                                                             
C 13.42 13.95  4.69                                                             
C 13.42 13.95 23.45                                                             
C 13.42 13.95 42.21                                                             
C 13.42 13.95 60.97                                                             
C 13.42 13.95 79.73                                                             
C 17.45 11.62  4.69                                                             
C 17.45 11.62 23.45                                                             
C 17.45 11.62 42.21                                                             
C 17.45 11.62 60.97                                                             
C 17.45 11.62 79.73                                                             
C 21.47  9.30  4.69                                                             
C 21.47  9.30 23.45                                                             
C 21.47  9.30 42.21                                                             
C 21.47  9.30 60.97                                                             
C 21.47  9.30 79.73                                                             
C 25.50  6.97  4.69                                                             
C 25.50  6.97 23.45                                                             
C 25.50  6.97 42.21                                                             
C 25.50  6.97 60.97                                                             
C 25.50  6.97 79.73                                                             
C 29.52  4.65  4.69                                                             
C 29.52  4.65 23.45                                                             
C 29.52  4.65 42.21                                                             
C 29.52  4.65 60.97                                                             
C 29.52  4.65 79.73                                                             
C 17.45 16.27  4.69                                                             
C 17.45 16.27 23.45                                                             
C 17.45 16.27 42.21                                                             
C 17.45 16.27 60.97                                                             
C 17.45 16.27 79.73                                                             
C 21.47 13.95  4.69                                                             
C 21.47 13.95 23.45                                                             
C 21.47 13.95 42.21                                                             
C 21.47 13.95 60.97                                                             
C 21.47 13.95 79.73                                                             
C 25.50 11.62  4.69                                                             
C 25.50 11.62 23.45                                                             
C 25.50 11.62 42.21                                                             
C 25.50 11.62 60.97                                                             
C 25.50 11.62 79.73                                                             
C 29.52  9.30  4.69                                                             
C 29.52  9.30 23.45                                                             
C 29.52  9.30 42.21                                                             
C 29.52  9.30 60.97                                                             
C 29.52  9.30 79.73                                                             
C 25.50 16.27  4.69                                                             
C 25.50 16.27 23.45                                                             
C 25.50 16.27 42.21                                                             
C 25.50 16.27 60.97                                                             
C 25.50 16.27 79.73                                                             
C 29.52 13.95  4.69                                                             
C 29.52 13.95 23.45                                                             
C 29.52 13.95 42.21                                                             
C 29.52 13.95 60.97                                                             
C 29.52 13.95 79.73                                                             
C  2.68  0.00 14.07                                                             
C  2.68  0.00 32.83                                                             
C  2.68  0.00 51.59                                                             
C  2.68  0.00 70.35                                                             
C  2.68  0.00 89.11                                                             
C  2.68  4.65 14.07                                                             
C  2.68  4.65 32.83                                                             
C  2.68  4.65 51.59                                                             
C  2.68  4.65 70.35                                                             
C  2.68  4.65 89.11                                                             
C  6.71  2.32 14.07                                                             
C  6.71  2.32 32.83                                                             
C  6.71  2.32 51.59                                                             
C  6.71  2.32 70.35                                                             
C  6.71  2.32 89.11                                                             
C 10.74  0.00 14.07                                                             
C 10.74  0.00 32.83                                                             
C 10.74  0.00 51.59                                                             
C 10.74  0.00 70.35                                                             
C 10.74  0.00 89.11                                                             
C  2.68  9.30 14.07                                                             
C  2.68  9.30 32.83                                                             
C  2.68  9.30 51.59                                                             
C  2.68  9.30 70.35                                                             
C  2.68  9.30 89.11                                                             
C  6.71  6.97 14.07                                                             
C  6.71  6.97 32.83                                                             
C  6.71  6.97 51.59                                                             
C  6.71  6.97 70.35                                                             
C  6.71  6.97 89.11                                                             
C 10.74  4.65 14.07                                                             
C 10.74  4.65 32.83                                                             
C 10.74  4.65 51.59                                                             
C 10.74  4.65 70.35                                                             
C 10.74  4.65 89.11                                                             
C 14.76  2.32 14.07                                                             
C 14.76  2.32 32.83                                                             
C 14.76  2.32 51.59                                                             
C 14.76  2.32 70.35                                                             
C 14.76  2.32 89.11                                                             
C 18.79  0.00 14.07                                                             
C 18.79  0.00 32.83                                                             
C 18.79  0.00 51.59                                                             
C 18.79  0.00 70.35                                                             
C 18.79  0.00 89.11                                                             
C  2.68 13.95 14.07                                                             
C  2.68 13.95 32.83                                                             
C  2.68 13.95 51.59                                                             
C  2.68 13.95 70.35                                                             
C  2.68 13.95 89.11                                                             
C  6.71 11.62 14.07                                                             
C  6.71 11.62 32.83                                                             
C  6.71 11.62 51.59                                                             
C  6.71 11.62 70.35                                                             
C  6.71 11.62 89.11                                                             
C 10.74  9.30 14.07                                                             
C 10.74  9.30 32.83                                                             
C 10.74  9.30 51.59                                                             
C 10.74  9.30 70.35                                                             
C 10.74  9.30 89.11                                                             
C 14.76  6.97 14.07                                                             
C 14.76  6.97 32.83                                                             
C 14.76  6.97 51.59                                                             
C 14.76  6.97 70.35                                                             
C 14.76  6.97 89.11                                                             
C 18.79  4.65 14.07                                                             
C 18.79  4.65 32.83                                                             
C 18.79  4.65 51.59                                                             
C 18.79  4.65 70.35                                                             
C 18.79  4.65 89.11                                                             
C 22.81  2.32 14.07                                                             
C 22.81  2.32 32.83                                                             
C 22.81  2.32 51.59                                                             
C 22.81  2.32 70.35                                                             
C 22.81  2.32 89.11                                                             
C 26.84  0.00 14.07                                                             
C 26.84  0.00 32.83                                                             
C 26.84  0.00 51.59                                                             
C 26.84  0.00 70.35                                                             
C 26.84  0.00 89.11                                                             
C  6.71 16.27 14.07                                                             
C  6.71 16.27 32.83                                                             
C  6.71 16.27 51.59                                                             
C  6.71 16.27 70.35                                                             
C  6.71 16.27 89.11                                                             
C 10.74 13.95 14.07                                                             
C 10.74 13.95 32.83                                                             
C 10.74 13.95 51.59                                                             
C 10.74 13.95 70.35                                                             
C 10.74 13.95 89.11                                                             
C 14.76 11.62 14.07                                                             
C 14.76 11.62 32.83                                                             
C 14.76 11.62 51.59                                                             
C 14.76 11.62 70.35                                                             
C 14.76 11.62 89.11                                                             
C 18.79  9.30 14.07                                                             
C 18.79  9.30 32.83                                                             
C 18.79  9.30 51.59                                                             
C 18.79  9.30 70.35                                                             
C 18.79  9.30 89.11                                                             
C 22.81  6.97 14.07                                                             
C 22.81  6.97 32.83                                                             
C 22.81  6.97 51.59                                                             
C 22.81  6.97 70.35                                                             
C 22.81  6.97 89.11                                                             
C 26.84  4.65 14.07                                                             
C 26.84  4.65 32.83                                                             
C 26.84  4.65 51.59                                                             
C 26.84  4.65 70.35                                                             
C 26.84  4.65 89.11                                                             
C 30.86  2.32 14.07                                                             
C 30.86  2.32 32.83                                                             
C 30.86  2.32 51.59                                                             
C 30.86  2.32 70.35                                                             
C 30.86  2.32 89.11                                                             
C 14.76 16.27 14.07                                                             
C 14.76 16.27 32.83                                                             
C 14.76 16.27 51.59                                                             
C 14.76 16.27 70.35                                                             
C 14.76 16.27 89.11                                                             
C 18.79 13.95 14.07                                                             
C 18.79 13.95 32.83                                                             
C 18.79 13.95 51.59                                                             
C 18.79 13.95 70.35                                                             
C 18.79 13.95 89.11                                                             
C 22.81 11.62 14.07                                                             
C 22.81 11.62 32.83                                                             
C 22.81 11.62 51.59                                                             
C 22.81 11.62 70.35                                                             
C 22.81 11.62 89.11                                                             
C 26.84  9.30 14.07                                                             
C 26.84  9.30 32.83                                                             
C 26.84  9.30 51.59                                                             
C 26.84  9.30 70.35                                                             
C 26.84  9.30 89.11                                                             
C 30.86  6.97 14.07                                                             
C 30.86  6.97 32.83                                                             
C 30.86  6.97 51.59                                                             
C 30.86  6.97 70.35                                                             
C 30.86  6.97 89.11                                                             
C 22.81 16.27 14.07                                                             
C 22.81 16.27 32.83                                                             
C 22.81 16.27 51.59                                                             
C 22.81 16.27 70.35                                                             
C 22.81 16.27 89.11                                                             
C 26.84 13.95 14.07                                                             
C 26.84 13.95 32.83                                                             
C 26.84 13.95 51.59                                                             
C 26.84 13.95 70.35                                                             
C 26.84 13.95 89.11                                                             
C 30.86 11.62 14.07                                                             
C 30.86 11.62 32.83                                                             
C 30.86 11.62 51.59                                                             
C 30.86 11.62 70.35                                                             
C 30.86 11.62 89.11                                                             
C 30.86 16.27 14.07                                                             
C 30.86 16.27 32.83                                                             
C 30.86 16.27 51.59                                                             
C 30.86 16.27 70.35                                                             
C 30.86 16.27 89.11                                                             
%ENDBLOCK POSITIONS_ABS                                                         

--------------------------------------------------------------------------------
-------------------------------- END INPUT FILE --------------------------------
--------------------------------------------------------------------------------


 
<<<<<<<<<<<<<<<<<<<<<<<<<<<<<<<<< Full system >>>>>>>>>>>>>>>>>>>>>>>>>>>>>>>>>>
<<<<<<<<<<<<<<<<<<<<<<<<<<< PAW Dataset information >>>>>>>>>>>>>>>>>>>>>>>>>>>
File: ~/pp/paw/c_pbe_abinit.paw; rc = 1.25 bohr; shape type =  3; rshape = 1.25 bohr;
  Atomic number:  6;  ionic charge:  4.000000
    Partial Wave 1: l = 0
    Partial Wave 2: l = 0
    Partial Wave 3: l = 1
    Partial Wave 4: l = 1
  Core charge supplied for Nonlinear Core Corrections
<<<<<<<<<<<<<<<<<<<<<<<<<<<<<<<<<<<<<<< >>>>>>>>>>>>>>>>>>>>>>>>>>>>>>>>>>>>>>>

-------------------------- Atom counting information ---------------------------
Symbol    Natoms    Nngwfs    Nprojs
  C        640      2560      5120
.......   ......    ......    ......
Totals:    640      2560      5120
--------------------------------------------------------------------------------

=============================== PSINC grid sizes ===============================
                      Simulation cell:   63 x  35 x 185
                              FFT-box:   63 x  35 x 117
                                  PPD:    7 x   5 x   1
Grid space d1=  0.511269841270a0 (KE cutoff=  29.06054Eh = 790.77748eV)
Grid space d2=  0.531142857143a0 (KE cutoff=  26.92659Eh = 732.70972eV)
Grid space d3=  0.507027027027a0 (KE cutoff=  29.54893Eh = 804.06734eV)
================================================================================
  
WARNING in cell_grid_distribute:
Average of less than one 23-slab per node, so workload cannot be
equally balanced between nodes.

********************* Fourier parallelisation information **********************
       Coarse grid (whole simulation cell) dimensions:     63    35   185
          Real-space ('12') slabs/node (min max mean):      4     5     4
         Recip-space ('23') slabs/node (min max mean):      0     1     0
********************************************************************************

********************* Fourier parallelisation information **********************
       Double grid (whole simulation cell) dimensions:    126    70   370
          Real-space ('12') slabs/node (min max mean):      9    10     9
         Recip-space ('23') slabs/node (min max mean):      1     2     1
********************************************************************************

Atom SCF Calculation for C  : Z (AE atom) =   6 : Z (PS atom) =   4
Config String: 2s2 2p2
Orbitals (num,occ):  2     2.00 2.00
Orbitals   (num,l):  2        0    1
Real-space Grid (nr,dr,rmax): 1293    0.0069659443    9.0000000000
Spherical Bessel Basis (nsws,lmax,cutoff):   37    2  161.4736382572
Confining potential (l,width,scale):  0    3.0000000000  100.0000000000
Confining potential (l,width,scale):  1    3.0000000000  100.0000000000
  1         -5.4468762137   -1.3311033486    4.5135257941   -1.6400141247
  2         -5.4563922850   -1.3925089082    4.4492606193   -1.6178955363
  3         -5.4591606672   -1.4162756486    4.4239316220   -1.6104942496
  4         -5.4639338613   -1.4240698331    4.4156521757   -1.6083566999
  5         -5.4657436445   -1.4272842389    4.4122438165   -1.6075116305
  6         -5.4665049591   -1.4285796230    4.4108740217   -1.6071800157
  7         -5.4668137280   -1.4291083664    4.4103163978   -1.6070462938
  8         -5.4669397753   -1.4293243321    4.4100892688   -1.6069921003
  9         -5.4669910134   -1.4294128082    4.4099964732   -1.6069700140
 10         -5.4670118707   -1.4294491026    4.4099585094   -1.6069609935
 11         -5.4670203648   -1.4294640137    4.4099429536   -1.6069573023
 12         -5.4670238269   -1.4294701480    4.4099365706   -1.6069557895
 13         -5.4670252393   -1.4294726750    4.4099339478   -1.6069551687
 14         -5.4670258160   -1.4294737172    4.4099328686   -1.6069549136
 15         -5.4670260518   -1.4294741476    4.4099324241   -1.6069548086
 16         -5.4670261483   -1.4294743256    4.4099322407   -1.6069547654
Atom SCF converged after  16 iterations to a total energy of     -5.46702615

Determining parallel strategy ...
... using space-filling curve
... NGWF load balancing: max     64;  min     64;  average     64
... Projector load balancing: max    128;  min    128;  average    128
... done
Calculating Ewald energy ...
              Ewald: real-space energy =    9742.017392
        Ewald: reciprocal-space energy =       7.503426
         Ewald: (sum_charge)**2 Energy =    9928.850221
         Ewald: (sum_charge**2) Energy =     784.944531
                          Ewald Energy =    -964.273934
Basis initialisation ...... NGWF spheres initialised
... Projector spheres initialised
... NGWF tight boxes initialised
... Projector tight boxes initialised
... Tight-boxes gathered
... NGWF basis size (local,global):     692404  27881760
... PAW projector initialisation
... done

============================= Charge Augmentation ==============================
                           Aug box size:   11 x  11 x  11
================================================================================

========================== Sparse matrix information ===========================
                        Overlap matrix filling:  27.81%
                        Density kernel filling: 100.00%
              NGWF-Proj overlap matrix filling:   7.03%
                    Aug Overlap matrix filling:  32.03%
                    Hamiltonian matrix filling:  32.03%
                  NGWF diagonal matrix filling:   0.16%
                             KS matrix filling: 100.00% 
                           KSKS matrix filling: 100.00% 
================================================================================

Sparse matrix initialisation ... done
NGWF initialisation ...... done
============ Calculation of NGWF S^-1 using Hotelling algorithm ================ 
         Iteration  |  Frobenius norm and Maximum abs value    (of I-S*S_n^-1)   
               1       0.48714867E+02     0.97121332E+00
               2       0.47272778E+02     0.94450434E+00
               3       0.45199338E+02     0.89648708E+00
               4       0.42611429E+02     0.81752194E+00
               5       0.39568548E+02     0.71338430E+00
               6       0.36156344E+02     0.66122432E+00
               7       0.32759164E+02     0.61697828E+00
               8       0.29473106E+02     0.57836055E+00
               9       0.25714510E+02     0.52929603E+00
              10       0.20825442E+02     0.44909125E+00
              11       0.14583600E+02     0.32690917E+00
              12       0.78740407E+01     0.17898531E+00
              13       0.26761531E+01     0.58395845E-01
              14       0.36946227E+00     0.73022975E-02
              15       0.83608554E-02     0.14138060E-03
              16       0.57100138E-05     0.69284496E-07
              17       0.40943060E-11     0.31197267E-13
================================================================================
Calculating core density ...
================================= Core Density =================================
               Core den box size:   21 x  21 x  21
================================================================================
 ... done
Up spin density kernel initialisation ...... done

Writing density kernel to file "4.96387_GO_manual_4x64graphite.dkn" ... done

>>> Optimising kernel for current NGWFs:

--------------------------- Ensemble-DFT optimisation --------------------------
Running ScaLAPACK on   40 processor(s).

--------------------------------------------------------------------------------
  Iter                              Commutator    Free_energy(A=E-TS)     DeltaA
#    0                          0.000039441377   -3647.66540462584226  -3.65E+03

Step                       =       0.381966011250
Energy                     =   -3647.665378879694
Entropy (-TS)              =      -0.000025746098
Free energy (A=E-TS)       =   -3647.665404625842
Est. 0K Energy 0.5*(E+A)   =   -3647.665391752768
Residual Non-orthogonality =       0.000000000000
Residual N_electrons       =      -0.000000000050

Spin          Integrated_Ne            Fermi_level     Delta_Fermi_level
   1      2560.000000001013         0.049756934555              4.98E-02

                           Spin 1          
     Orb      H-eigenvalues     Occupancies
       1 |    -0.6687112866    1.0000000000 | 
                          ------
    1276 |     0.0130599028    0.9999907234 | 
    1277 |     0.0130599028    0.9999907234 | 
    1278 |     0.0130956107    0.9999906182 | 
    1279 |     0.0130956107    0.9999906182 | 
    1280 |     0.0131151211    0.9999905602 | 
                 - Gap at zero temperature -
    1281 |     0.0865859066    0.0000088980 | 
    1282 |     0.0865859066    0.0000088980 | 
    1283 |     0.0865881110    0.0000088919 | 
    1284 |     0.0865881110    0.0000088919 | 
    1285 |     0.0865894730    0.0000088880 | 
                          ------
    2560 |     0.8791244032    0.0000000000 | 

                       |  Abs_value |  Threshold | Converged
     Delta_Free_energy |   3.65E+03 |   1.00E-06 |        No
     Delta_Energy      |   3.65E+03 |   1.00E-04 |        No
     Delta_Entropy     |   2.57E-05 |   1.00E-04 |       Yes
     Commutator        |   3.94E-05 |   1.00E-05 |        No
     Delta_Fermi_level |   4.98E-02 |   1.00E-03 |        No

  Line search of the free energy minimum:
  Step_type        Step             Free_energy   Predicted_free_energy
.   Initial    0.000000    -3647.66540462584226
.    Trial1    0.381966    -3647.66715125238670
.    Trial2    0.618034    -3647.66764123020175
. Quadratic    0.756849    -3647.66771953308080    -3647.66771908814553

--------------------------------------------------------------------------------
  Iter                              Commutator    Free_energy(A=E-TS)     DeltaA
#    1                          0.000018406534   -3647.66771953308080  -2.31E-03

Step                       =       0.756848694102
Energy                     =   -3647.667692590780
Entropy (-TS)              =      -0.000026942311
Free energy (A=E-TS)       =   -3647.667719533081
Est. 0K Energy 0.5*(E+A)   =   -3647.667706061930
Residual Non-orthogonality =       0.000000000000
Residual N_electrons       =       0.000000000010

Spin          Integrated_Ne            Fermi_level     Delta_Fermi_level
   1      2559.999999999754         0.040698309698             -9.06E-03

                           Spin 1          
     Orb      H-eigenvalues     Occupancies
       1 |    -0.6809024108    1.0000000000 | 
                          ------
    1276 |     0.0040711509    0.9999905165 | 
    1277 |     0.0040711509    0.9999905165 | 
    1278 |     0.0040825245    0.9999904823 | 
    1279 |     0.0040825245    0.9999904823 | 
    1280 |     0.0040892511    0.9999904621 | 
                 - Gap at zero temperature -
    1281 |     0.0772872219    0.0000095988 | 
    1282 |     0.0772872219    0.0000095988 | 
    1283 |     0.0772888015    0.0000095940 | 
    1284 |     0.0772888015    0.0000095940 | 
    1285 |     0.0772897773    0.0000095910 | 
                          ------
    2560 |     0.8657778317    0.0000000000 | 

                       |  Abs_value |  Threshold | Converged
     Delta_Free_energy |   2.31E-03 |   1.00E-06 |        No
     Delta_Energy      |   2.31E-03 |   1.00E-04 |        No
     Delta_Entropy     |   1.20E-06 |   1.00E-04 |       Yes
     Commutator        |   1.84E-05 |   1.00E-05 |        No
     Delta_Fermi_level |   9.06E-03 |   1.00E-03 |        No

  Line search of the free energy minimum:
  Step_type        Step             Free_energy   Predicted_free_energy
.   Initial    0.000000    -3647.66771953308080
.    Trial1    0.756849    -3647.66694566168644
.    Trial2    0.289090    -3647.66807330759730
. Quadratic    0.271962    -3647.66807471013226    -3647.66807471641732

--------------------------------------------------------------------------------
  Iter                              Commutator    Free_energy(A=E-TS)     DeltaA
#    2                          0.000007592346   -3647.66807471013226  -3.55E-04

Step                       =       0.271962334737
Energy                     =   -3647.668047672214
Entropy (-TS)              =      -0.000027037857
Free energy (A=E-TS)       =   -3647.668074710132
Est. 0K Energy 0.5*(E+A)   =   -3647.668061191173
Residual Non-orthogonality =       0.000000000000
Residual N_electrons       =      -0.000000000061

Spin          Integrated_Ne            Fermi_level     Delta_Fermi_level
   1      2560.000000001524         0.039918776823             -7.80E-04

                           Spin 1          
     Orb      H-eigenvalues     Occupancies
       1 |    -0.6819602738    1.0000000000 | 
                          ------
    1276 |     0.0033399034    0.9999903707 | 
    1277 |     0.0033399034    0.9999903707 | 
    1278 |     0.0033497845    0.9999903407 | 
    1279 |     0.0033497845    0.9999903407 | 
    1280 |     0.0033556624    0.9999903227 | 
                 - Gap at zero temperature -
    1281 |     0.0765313035    0.0000095275 | 
    1282 |     0.0765313035    0.0000095275 | 
    1283 |     0.0765328335    0.0000095229 | 
    1284 |     0.0765328335    0.0000095229 | 
    1285 |     0.0765337791    0.0000095200 | 
                          ------
    2560 |     0.8646190175    0.0000000000 | 

                       |  Abs_value |  Threshold | Converged
     Delta_Free_energy |   3.55E-04 |   1.00E-06 |        No
     Delta_Energy      |   3.55E-04 |   1.00E-04 |        No
     Delta_Entropy     |   9.55E-08 |   1.00E-04 |       Yes
     Commutator        |   7.59E-06 |   1.00E-05 |       Yes
     Delta_Fermi_level |   7.80E-04 |   1.00E-03 |       Yes

  Line search of the free energy minimum:
  Step_type        Step             Free_energy   Predicted_free_energy
.   Initial    0.000000    -3647.66807471013226
.    Trial1    0.271962    -3647.66812816760148
.    Trial2    0.550048    -3647.66813422716177
. Quadratic    0.445295    -3647.66813771401121    -3647.66813771379157

--------------------------------------------------------------------------------
  Iter                              Commutator    Free_energy(A=E-TS)     DeltaA
#    3                          0.000004609097   -3647.66813771401121  -6.30E-05

Step                       =       0.445294711021
Energy                     =   -3647.668110567701
Entropy (-TS)              =      -0.000027146295
Free energy (A=E-TS)       =   -3647.668137714011
Est. 0K Energy 0.5*(E+A)   =   -3647.668124140856
Residual Non-orthogonality =       0.000000000000
Residual N_electrons       =      -0.000000000016

Spin          Integrated_Ne            Fermi_level     Delta_Fermi_level
   1      2560.000000000409         0.038987112116             -9.32E-04

                           Spin 1          
     Orb      H-eigenvalues     Occupancies
       1 |    -0.6832116206    1.0000000000 | 
                          ------
    1276 |     0.0024351570    0.9999902885 | 
    1277 |     0.0024351570    0.9999902885 | 
    1278 |     0.0024433544    0.9999902634 | 
    1279 |     0.0024433544    0.9999902634 | 
    1280 |     0.0024482617    0.9999902483 | 
                 - Gap at zero temperature -
    1281 |     0.0755992167    0.0000095287 | 
    1282 |     0.0755992167    0.0000095287 | 
    1283 |     0.0756006898    0.0000095243 | 
    1284 |     0.0756006898    0.0000095243 | 
    1285 |     0.0756015994    0.0000095216 | 
                          ------
    2560 |     0.8632590133    0.0000000000 | 

                       |  Abs_value |  Threshold | Converged
     Delta_Free_energy |   6.30E-05 |   1.00E-06 |        No
     Delta_Energy      |   6.29E-05 |   1.00E-04 |       Yes
     Delta_Entropy     |   1.08E-07 |   1.00E-04 |       Yes
     Commutator        |   4.61E-06 |   1.00E-05 |       Yes
     Delta_Fermi_level |   9.32E-04 |   1.00E-03 |       Yes

  Line search of the free energy minimum:
  Step_type        Step             Free_energy   Predicted_free_energy
.   Initial    0.000000    -3647.66813771401121
.    Trial1    0.445295    -3647.66815532398778
.    Trial2    0.657173    -3647.66813311569422
. Quadratic    0.312660    -3647.66815918785960    -3647.66815918843668

--------------------------------------------------------------------------------
  Iter                              Commutator    Free_energy(A=E-TS)     DeltaA
#    4                          0.000002759290   -3647.66815918785960  -2.15E-05

Step                       =       0.312660400109
Energy                     =   -3647.668132000937
Entropy (-TS)              =      -0.000027186915
Free energy (A=E-TS)       =   -3647.668159187860
Est. 0K Energy 0.5*(E+A)   =   -3647.668145594398
Residual Non-orthogonality =       0.000000000000
Residual N_electrons       =      -0.000000000009

Spin          Integrated_Ne            Fermi_level     Delta_Fermi_level
   1      2560.000000000224         0.038624904660             -3.62E-04

                           Spin 1          
     Orb      H-eigenvalues     Occupancies
       1 |    -0.6836993729    1.0000000000 | 
[...]
 C   275 -- C   555       -0.10      5.37000
 C   274 -- C   554       -0.10      5.37000
 C   273 -- C   553       -0.10      5.37000
 C   272 -- C   552       -0.10      5.37000
 C   271 -- C   551       -0.10      5.37000
 C   270 -- C   550       -0.10      5.37000
 C   269 -- C   549       -0.10      5.37000
 C   268 -- C   548       -0.10      5.37000
 C   267 -- C   547       -0.10      5.37000
 C   266 -- C   546       -0.10      5.37000
 C   130 -- C   465       -0.09      5.37000
 C   129 -- C   464       -0.09      5.37000
 C   128 -- C   463       -0.09      5.37000
 C   127 -- C   462       -0.09      5.37000
 C   126 -- C   461       -0.09      5.37000
 C   240 -- C   525       -0.10      5.37000
 C   239 -- C   524       -0.10      5.37000
 C   238 -- C   523       -0.10      5.37000
 C   237 -- C   522       -0.10      5.37000
 C   236 -- C   521       -0.10      5.37000
 C    23 -- C   478       -0.09      5.37202
 C    49 -- C   469       -0.09      5.37202
 C    48 -- C   468       -0.09      5.37202
 C    47 -- C   467       -0.09      5.37202
 C    22 -- C   477       -0.09      5.37202
 C    46 -- C   466       -0.09      5.37202
 C    21 -- C   476       -0.09      5.37202
 C    25 -- C   480       -0.09      5.37202
 C    24 -- C   479       -0.09      5.37202
 C    50 -- C   470       -0.09      5.37202
 C    24 -- C   449       -0.09      5.37202
 C     6 -- C   416       -0.09      5.37202
 C    23 -- C   448       -0.09      5.37202
 C    22 -- C   447       -0.09      5.37202
 C    10 -- C   470       -0.09      5.37202
 C     5 -- C   450       -0.09      5.37202
 C    21 -- C   446       -0.09      5.37202
 C    10 -- C   420       -0.09      5.37202
 C     9 -- C   469       -0.09      5.37202
 C     9 -- C   419       -0.09      5.37202
 C     8 -- C   468       -0.09      5.37202
 C     4 -- C   449       -0.09      5.37202
 C     8 -- C   418       -0.09      5.37202
 C     2 -- C   447       -0.09      5.37202
 C     7 -- C   467       -0.09      5.37202
 C     7 -- C   417       -0.09      5.37202
 C     1 -- C   446       -0.09      5.37202
 C     6 -- C   466       -0.09      5.37202
 C    25 -- C   450       -0.09      5.37202
 C     3 -- C   448       -0.09      5.37202
 C   285 -- C   580       -0.09      5.37202
 C   284 -- C   579       -0.09      5.37202
 C   283 -- C   578       -0.09      5.37202
 C   282 -- C   577       -0.09      5.37202
 C   281 -- C   576       -0.09      5.37202
 C   260 -- C   605       -0.09      5.37202
 C   259 -- C   604       -0.09      5.37202
 C   258 -- C   603       -0.09      5.37202
 C   257 -- C   602       -0.09      5.37202
 C   256 -- C   601       -0.09      5.37202
 C   219 -- C   569       -0.09      5.37202
 C   218 -- C   568       -0.09      5.37202
 C   217 -- C   567       -0.09      5.37202
 C   216 -- C   566       -0.09      5.37202
 C    11 -- C   331       -0.09      5.37202
 C   205 -- C   550       -0.09      5.37202
 C   204 -- C   549       -0.09      5.37202
 C   203 -- C   548       -0.09      5.37202
 C   202 -- C   547       -0.09      5.37202
 C   201 -- C   546       -0.09      5.37202
 C    15 -- C   335       -0.09      5.37202
 C    30 -- C   355       -0.09      5.37202
 C    30 -- C   325       -0.09      5.37202
 C    14 -- C   334       -0.09      5.37202
 C    29 -- C   354       -0.09      5.37202
 C    29 -- C   324       -0.09      5.37202
 C   260 -- C   550       -0.09      5.37202
 C   259 -- C   549       -0.09      5.37202
 C    28 -- C   353       -0.09      5.37202
 C   258 -- C   548       -0.09      5.37202
 C   257 -- C   547       -0.09      5.37202
 C   256 -- C   546       -0.09      5.37202
 C    28 -- C   323       -0.09      5.37202
 C    27 -- C   352       -0.09      5.37202
 C    13 -- C   333       -0.09      5.37202
 C   250 -- C   540       -0.09      5.37202
 C   249 -- C   539       -0.09      5.37202
 C   248 -- C   538       -0.09      5.37202
 C   247 -- C   537       -0.09      5.37202
 C   246 -- C   536       -0.09      5.37202
 C    27 -- C   322       -0.09      5.37202
 C    26 -- C   351       -0.09      5.37202
 C    55 -- C   335       -0.09      5.37202
 C    26 -- C   321       -0.09      5.37202
 C    54 -- C   334       -0.09      5.37202
 C    12 -- C   332       -0.09      5.37202
 C    53 -- C   333       -0.09      5.37202
 C   230 -- C   580       -0.09      5.37202
 C   230 -- C   525       -0.09      5.37202
 C   229 -- C   579       -0.09      5.37202
 C   229 -- C   524       -0.09      5.37202
 C   228 -- C   578       -0.09      5.37202
 C    52 -- C   332       -0.09      5.37202
 C   228 -- C   523       -0.09      5.37202
 C   227 -- C   577       -0.09      5.37202
 C   227 -- C   522       -0.09      5.37202
 C   226 -- C   576       -0.09      5.37202
 C   226 -- C   521       -0.09      5.37202
 C    51 -- C   331       -0.09      5.37202
 C   220 -- C   570       -0.09      5.37202
 C   220 -- C   515       -0.09      5.37202
 C   219 -- C   514       -0.09      5.37202
 C   218 -- C   513       -0.09      5.37202
 C   217 -- C   512       -0.09      5.37202
 C   216 -- C   511       -0.09      5.37202
 C    95 -- C   425       -0.09      5.37202
 C    95 -- C   365       -0.09      5.37202
 C    94 -- C   424       -0.09      5.37202
 C    94 -- C   364       -0.09      5.37202
 C    93 -- C   423       -0.09      5.37202
 C   195 -- C   540       -0.09      5.37202
 C   195 -- C   500       -0.09      5.37202
 C    93 -- C   363       -0.09      5.37202
 C   194 -- C   539       -0.09      5.37202
 C    92 -- C   422       -0.09      5.37202
 C   194 -- C   499       -0.09      5.37202
 C   193 -- C   538       -0.09      5.37202
 C   193 -- C   498       -0.09      5.37202
 C    92 -- C   362       -0.09      5.37202
 C   192 -- C   537       -0.09      5.37202
 C    91 -- C   421       -0.09      5.37202
 C   192 -- C   497       -0.09      5.37202
 C   191 -- C   536       -0.09      5.37202
 C   191 -- C   496       -0.09      5.37202
 C    91 -- C   361       -0.09      5.37202
 C    85 -- C   355       -0.09      5.37202
 C   180 -- C   515       -0.09      5.37202
 C    40 -- C   365       -0.09      5.37202
 C    84 -- C   354       -0.09      5.37202
 C   179 -- C   514       -0.09      5.37202
 C    83 -- C   353       -0.09      5.37202
 C   178 -- C   513       -0.09      5.37202
 C   177 -- C   512       -0.09      5.37202
 C    82 -- C   352       -0.09      5.37202
 C    39 -- C   364       -0.09      5.37202
 C   176 -- C   511       -0.09      5.37202
 C    81 -- C   351       -0.09      5.37202
 C    38 -- C   363       -0.09      5.37202
 C    37 -- C   362       -0.09      5.37202
 C    36 -- C   361       -0.09      5.37202
 C    65 -- C   395       -0.09      5.37202
 C    65 -- C   345       -0.09      5.37202
 C    64 -- C   394       -0.09      5.37202
 C    64 -- C   344       -0.09      5.37202
 C    63 -- C   393       -0.09      5.37202
 C    63 -- C   343       -0.09      5.37202
 C    62 -- C   392       -0.09      5.37202
 C    62 -- C   342       -0.09      5.37202
 C    61 -- C   391       -0.09      5.37202
 C    61 -- C   341       -0.09      5.37202
 C   120 -- C   395       -0.09      5.37202
 C    55 -- C   385       -0.09      5.37202
 C   119 -- C   394       -0.09      5.37202
 C   118 -- C   393       -0.09      5.37202
 C   117 -- C   392       -0.09      5.37202
 C    54 -- C   384       -0.09      5.37202
 C   116 -- C   391       -0.09      5.37202
 C    53 -- C   383       -0.09      5.37202
 C    52 -- C   382       -0.09      5.37202
 C    51 -- C   381       -0.09      5.37202
 C   150 -- C   440       -0.09      5.37202
 C   149 -- C   439       -0.09      5.37202
 C   148 -- C   438       -0.09      5.37202
 C   147 -- C   437       -0.09      5.37202
 C   146 -- C   436       -0.09      5.37202
 C   135 -- C   460       -0.09      5.37202
 C   134 -- C   459       -0.09      5.37202
 C   133 -- C   458       -0.09      5.37202
 C   132 -- C   457       -0.09      5.37202
 C   131 -- C   456       -0.09      5.37202
 C   106 -- C   436       -0.09      5.37202
 C   106 -- C   376       -0.09      5.37202
 C    80 -- C   410       -0.09      5.37202
 C    79 -- C   409       -0.09      5.37202
 C    78 -- C   408       -0.09      5.37202
 C    77 -- C   407       -0.09      5.37202
 C    76 -- C   406       -0.09      5.37202
 C   135 -- C   410       -0.09      5.37202
 C   134 -- C   409       -0.09      5.37202
 C   133 -- C   408       -0.09      5.37202
 C   132 -- C   407       -0.09      5.37202
 C   131 -- C   406       -0.09      5.37202
 C   110 -- C   440       -0.09      5.37202
 C   110 -- C   380       -0.09      5.37202
 C   109 -- C   439       -0.09      5.37202
 C   109 -- C   379       -0.09      5.37202
 C   108 -- C   438       -0.09      5.37202
 C   108 -- C   378       -0.09      5.37202
 C   107 -- C   437       -0.09      5.37202
 C   107 -- C   377       -0.09      5.37202
 C   215 -- C   635       -0.09      5.38000
 C   214 -- C   634       -0.09      5.38000
 C   213 -- C   633       -0.09      5.38000
 C   212 -- C   632       -0.09      5.38000
 C   211 -- C   631       -0.09      5.38000
 C   190 -- C   620       -0.09      5.38000
 C   189 -- C   619       -0.09      5.38000
 C   188 -- C   618       -0.09      5.38000
 C   187 -- C   617       -0.09      5.38000
 C   186 -- C   616       -0.09      5.38000
 C   175 -- C   595       -0.09      5.38000
 C   174 -- C   594       -0.09      5.38000
 C   173 -- C   593       -0.09      5.38000
 C   172 -- C   592       -0.09      5.38000
 C   171 -- C   591       -0.09      5.38000
 C   245 -- C   640       -0.09      5.38000
 C   244 -- C   639       -0.09      5.38000
 C   243 -- C   638       -0.09      5.38000
 C   242 -- C   637       -0.09      5.38000
 C   241 -- C   636       -0.09      5.38000
==================================================


=================== Orbital energy and occupancy information ===================

      Total number of orbitals:    2560
        Occupancy sum (kernel):    1280.000000000
   Occupancy sum (eigenvalues):    1280.000000000
                 HOMO-LUMO gap:       0.071648860 Eh
                 Mid-gap level:       0.119381111 Eh

                        Orbital | Energy (Eh) | Occupancy
                            1    -0.596640403   1.0000000
                        .......   ...........   .........
                         1271     0.082592791   0.9999901
                         1272     0.082592791   0.9999901
                         1273     0.082946990   0.9999889
                         1274     0.082946990   0.9999889
                         1275     0.083059557   0.9999885
                         1276     0.083059557   0.9999885
                         1277     0.083088664   0.9999884
                         1278     0.083414691   0.9999872
                         1279     0.083414691   0.9999872
                         1280     0.083556681   0.9999866
                        ....... -- gap at 0K -- .........
                         1281     0.155205541   0.0000110
                         1282     0.155205541   0.0000110
                         1283     0.155213111   0.0000110
                         1284     0.155213111   0.0000110
                         1285     0.155217925   0.0000110
                         1286     0.155454224   0.0000102
                         1287     0.155454224   0.0000102
                         1288     0.155461239   0.0000102
                         1289     0.155461239   0.0000102
                         1290     0.155465725   0.0000102
                        .......   ...........   .........
                         2560     1.010472135   0.0000000

================================================================================

===================== Writing canonical molecular orbitals =====================
| Orbital  Energy (eV)  Norm     |
| HOMO      2.27369299  1.000000 | Writing "4.96387_GO_manual_4x64graphite_HOMO.cube" ... done
Writing "4.96387_GO_manual_4x64graphite_HOMO.dx" ... done
| LUMO      4.22335767  1.000000 | Writing "4.96387_GO_manual_4x64graphite_LUMO.cube" ... done
Writing "4.96387_GO_manual_4x64graphite_LUMO.dx" ... done
================================================================================
 
===================== Density of States (DOS) calculation ======================
Writing "4.96387_GO_manual_4x64graphite_DOS.txt" ...  done
================================================================================
 
Writing bands to file "4.96387_GO_manual_4x64graphite.val_bands" ... done
 
================ Projected Density of States (pDOS) calculation ================
 
Constructing AM resolved functions  ...... done
Writing NGWF plot files in formats: CUBE DX ...  done
 
Performing overlap integrals ...  done
 
Computing pDOS weights ...  done
 
All bands spilling parameter =   2.68 %
Occupancy-weighted spilling parameter =   0.98 %
 
 => Outputting data for OptaDOS <=
 
Writing pDOS weights to file "4.96387_GO_manual_4x64graphite.val_pdos_bin" ... done
 
Writing band gradients to file "4.96387_GO_manual_4x64graphite.val_dome_bin" ... done
 
Writing Castep output cell file to "4.96387_GO_manual_4x64graphite-out.cell" ... done
 
 => Computing Gaussian smeared pDOS <= 
Writing "4.96387_GO_manual_4x64graphite_PDOS.txt" ...  done
 
 => Computing Occupancy-weighted Gaussian smeared pDOS <= 
Writing "4.96387_GO_manual_4x64graphite_occ_PDOS.txt" ...  done
  => Band centres: 
 S band centre of group 1:  -13.674572 eV
 P band centre of group 1:   -6.552969 eV
  Band centres done. <=
  => Integrated number of electrons in each AM band: 
 S num electrons of group 1:  574.036131
 P num electrons of group 1: 1960.787523
  Integrated number of electrons done. <=
================================================================================

------------------------------ TIMING INFORMATION ------------------------------
AVERAGE TIME:    2421.150s on     40 node(s)                                    
TOTAL TIME:      2421.151s on     40 node(s)                                    
================= AVERAGE TIMINGS FROM ALL NODES (CUMULATIVE) ==================
|| TAG                                    #calls    cpu time   %total  Gflops ||
|| work_imbalance                       :     1        0.00s   0.000%  ------ ||
|| paw_tcore_density                    :     1        0.01s   0.000%  ------ ||
|| paw_tcore_hartree_on_grid            :     1        0.01s   0.000%  ------ ||
|| paw_sphere_density_on_grid           :     1        0.01s   0.001%  ------ ||
|| sparse_set_to_garbage                :   135        0.02s   0.001%  ------ ||
|| paw_dij_hartree                      :   269        0.03s   0.001%  ------ ||
|| basis_extract_function_from_box      :  1536        0.07s   0.003%  ------ ||
|| pseudo_make_structure_factor         :     1        0.07s   0.003%  ------ ||
|| paw_species_calc_proj_prec_mat       :     1        0.13s   0.005%  ------ ||
|| density_init_guess_real              :     1        0.17s   0.007%  ------ ||
|| paw_dataset_init                     :     1        0.23s   0.009%  ------ ||
|| restart_kernel_write                 :    13        0.64s   0.026%  ------ ||
|| ngwfs_initialise_from_radial         :     2        0.66s   0.027%  ------ ||
|| sparse_init                          :     1        0.83s   0.034%  ------ ||
|| dense_normal_eigensolve              :     1        1.32s   0.055%  ------ ||
|| hartree_on_grid                      :   203        1.81s   0.075%  ------ ||
|| projectors_init_fftbox_recip         :   121        2.38s   0.098%  ------ ||
|| fourier_apply_box_pair               :  2272        3.77s   0.156% 559.513 ||
|| basis_copy_function_to_box           : 19328        4.15s   0.171%  ------ ||
|| augmentation_screen_dij              :   208        4.59s   0.190%  ------ ||
|| ewald_calculate_energy               :     1        5.29s   0.219%  ------ ||
|| sparse_embed_hotelling_invert_embed  :    23        6.71s   0.277%  ------ ||
|| sw_init                              :     1        6.74s   0.278%  ------ ||
|| ngwf_gradient_coeffs                 :    12        8.54s   0.353%  ------ ||
|| sparse_trace                         :  2432        9.33s   0.385%  ------ ||
|| cell_grid_deposit_box_real           : 26160       15.88s   0.656%  ------ ||
|| cell_grid_extract_box_real           :  8140       17.10s   0.706%  ------ ||
|| fourier_apply_cell_backward          :  6264       18.78s   0.776%  59.515 ||
|| fourier_apply_cell_forward           :  5859       19.15s   0.791%  54.581 ||
|| density_fftbox_deposit_to_cell       : 12992       31.28s   1.292%  ------ ||
|| paw_dij_xc                           :   269       31.90s   1.317%  ------ ||
|| projectors_func_ovlp_box             :    24       33.73s   1.393%  ------ ||
|| function_ops_brappd_ketppd           :    48       33.77s   1.395%  ------ ||
|| augmentation_density_on_grid         :   203       34.19s   1.412%  ------ ||
|| aug_nonlocal_mat                     :   257       35.94s   1.484%  ------ ||
|| hamiltonian_energy_components        :     3       37.04s   1.530%  ------ ||
|| integrals_kinetic                    :    23       51.26s   2.117%  ------ ||
|| eigenstates_pdos                     :     1       53.04s   2.191%  ------ ||
|| eigenstates_calculate                :     1       57.86s   2.390%  ------ ||
|| xc_energy_potential                  :   202       76.82s   3.173%  ------ ||
|| nlxc_vdw_energy                      :   404       78.11s   3.226%  ------ ||
|| dense_eigensolve                     :   176       86.62s   3.578%  ------ ||
|| sparse_product                       :  2483       91.88s   3.795%  ------ ||
|| potential_apply_to_ngwf_batch        :   252       97.14s   4.012%  ------ ||
|| basis_dot_function_with_box          : 3.949M     107.87s   4.455%  ------ ||
|| properties_calculate                 :     1      110.13s   4.549%  ------ ||
|| restart_ngwfs_tightbox_output        :    11      123.75s   5.111%  ------ ||
|| projectors_gradient_batch            :    48      127.84s   5.280%  ------ ||
|| integrals_locpot_mat_els_batch       :   252      144.00s   5.948%  ------ ||
|| projectors_grad_precond_batch        :    48      178.31s   7.365%  ------ ||
|| fourier_apply_box                    : 61104      189.61s   7.831% 976.004 ||
|| edft_diag_ngwf_ham                   :   175      194.26s   8.023%  ------ ||
|| integrals_locpot_dbl_grid            :    63      241.99s   9.995%  ------ ||
|| density_fftbox_interpolate_multiply  : 12992      251.11s  10.372%  ------ ||
|| basis_add_function_to_box            : 11.44M     300.98s  12.431%  ------ ||
|| density_batch_interp_deposit         :   812      311.79s  12.878%  ------ ||
|| ngwf_gradient_build_batch            :    48      342.49s  14.146%  ------ ||
|| edft_apply_smearing_operator         :   175      377.54s  15.593%  ------ ||
|| density_batch_row_sums               :   812      407.97s  16.850%  ------ ||
|| ngwf_gradient_batch                  :    48      464.64s  19.191%  ------ ||
|| ngwf_gradient_lnv                    :    12      483.05s  19.951%  ------ ||
|| density_on_dbl_grid                  :   203      732.86s  30.269%  ------ ||
|| hamiltonian_lhxc_calculate           :   198      827.41s  34.174%  ------ ||
|| edft_calculate                       :    12     1450.04s  59.891%  ------ ||
|| ngwf_cg_optimise                     :     1     2286.33s  94.432%  ------ ||
|| total_time                           :     1     2421.15s 100.000%  ------ ||
================================================================================
Overhead of generating timer report: 
- 0 ms averaging over threads,
- 6 ms ensuring consistency across MPI ranks,
- 0 ms printing in order.

Job completed: 05-03-2020 15:45 (-0000)

