 +---------------------------------------------------------------+
 |                                                               |
 |        ####### #     # ####### ####### ####### ######         |
 |        #     # ##    # #          #    #       #     #        |
 |        #     # # #   # #          #    #       #     #        |
 |        #     # #  #  # #####      #    #####   ######         |
 |        #     # #   # # #          #    #       #              |
 |        #     # #    ## #          #    #       #              |
 |        ####### #     # #######    #    ####### #              |
 |                                                               |
 |        Linear-Scaling Ab Initio Total Energy Program          |
 |                                                               |
 |          Release for academic collaborators of ODG            |
 |                                             Version 5.3.2.12  |
 |                                                               |
 +---------------------------------------------------------------+
 |                                                               |
 |  Authors:                                                     |
 |  Jacek Dziedzic, Peter D. Haynes, Nicholas D. M. Hine,        |
 |  Arash. A. Mostofi, Mike C. Payne and Chris-Kriton Skylaris   |
 |                                                               |
 |  Contributors:                                                |
 |  J. Aarons, L. Andrinopoulos, P. W. Avraam, R. A. Bell,       |
 |  A. Bhandari, G. A. Bramley, R. J. Charlton, S. J. Clark,     |
 |  R. J. Clements, G. C. Constantinescu, F. Corsetti,           |
 |  N. Corsini, O. Dieguez, S. M. M. Dubois, K. K. B. Duff,      |
 |  J. M. Escartin, A. Greco, H. Helal, Q. O. Hill, L. P. Lee,   |
 |  J.-H. Li, E. B. Linscott, G. Moynihan, D. D. O`Regan,        |
 |  O. K. Okan, M. J. S. Phipps, C. J. Pickard,                  |
 |  J. C. A. Prentice, M. I. J. Probert, L. E. Ratcliff,         |
 |  M. Robinson, A. Ruiz Serrano, J. S. Spencer, E. W. Tait,     |
 |  G. Teobaldi, D. Turban, V. Vitale, K. A. Wilkinson,          |
 |  C. Weber, J. C. Womack, N. Yeung and T. J. Zuehlsdorff       |
 |                                                               |
 |                                   Copyright (c) 2004-2020     |
 |                                                               |
 |  Please cite:                                                 |
 |  "Introducing ONETEP: Linear-scaling density functional       |
 |   simulations on parallel computers".                         |
 |   C.-K. Skylaris, P. D. Haynes, A. A. Mostofi, M. C. Payne.   |
 |   J. Chem. Phys. 122 084119 (2005).                           |
 |                                                               |
 |          in all publications arising from your use of ONETEP. |
 |                                                               |
 +---------------------------------------------------------------+
 |                                                               |
 |   ONETEP is based on developments described in the following  |
 |   publications:                                               |
 |                                                               |
 |  "Nonorthogonal generalized Wannier function pseudopotential  |
 |   plane-wave method".                                         |
 |   C.-K. Skylaris, A. A. Mostofi, P. D. Haynes, O. Dieguez,    |
 |   M. C. Payne.                                                |
 |   Phys. Rev. B 66 035119 (2002).                              |
 |                                                               |
 |  "Preconditioned iterative minimization for linear-scaling    |
 |   electronic structure calculations".                         |
 |   A. A. Mostofi, P. D. Haynes, C.-K. Skylaris, M. C. Payne.   |
 |   J. Chem. Phys. 119(17), pp.8842-8848 (2003).                |
 |                                                               |
 |  "Total-energy calculations on a real space grid with         |
 |   localized functions and a plane-wave basis".                |
 |   A. A. Mostofi, C.-K. Skylaris, P. D. Haynes, M. C. Payne.   |
 |   Comput. Phys. Commun. 147, pp.788-802 (2002).               |
 |                                                               |
 |  "Accurate kinetic energy evaluation in electronic structure  |
 |   calculations with localized functions on real space grids"  |
 |   C.-K. Skylaris, A. A. Mostofi, P. D. Haynes, C. J. Pickard, |
 |   M. C. Payne.                                                |
 |   Comput. Phys. Commun. 140, pp.315-322 (2001).               |
 |                                                               |
 |  "Accurate ionic forces and geometry optimization in linear-  |
 |   scaling density-functional theory with local orbitals"      |
 |   N. D. M. Hine, M. Robinson, P. D. Haynes, C.-K. Skylaris,   |
 |   M. C. Payne, and A. A. Mostofi.                             |
 |   Phys. Rev. B 83 195102 (2011).                              |
 |                                                               |
 +---------------------------------------------------------------+

Job started: 05-09-2020 02:57 (+0100)
 
Reading parameters from file "592nano.dat" ...... done

If your calculation crashes here, before "Checking processes and threads..."
is displayed, then your stack size is insufficient.
If so, use "ulimit -s unlimited" at runtime.
You can disable this check with "check_stack_size F".

Checking processes and threads...
   Determining the default number of threads...
      No default threads set at compilation time: defaulting to 1.
      OpenMP library call suggests 4 threads.
      Hybrid MPI-OpenMP compilation detected.
      Number of MPI processes > 1.
      OMP_NUM_THREADS environment variable present and
      its value matches the one obtained from the OpenMP library call.
      Using this value as default.
      Default threads: 4
      Default applies to threads_max and threads_num_fftboxes.
      Settings in the input file override this default.
   ... done

   Running with 160 MPI processes.
   There are 10 MPI processes running on the same node as the root process.
   Each MPI process is using: 
               1 threads for simulation cell FFTs.
               1 threads for parallel FFT box operations.
               4 threads for loops over batched FFT box operations.
               4 threads in other parallel regions.
... done

Basic input checks...
Resetting ngwf_cg_rotate to TRUE for EDFT calculations
... done

Reading geometry and species blocks from file "592nano.dat" ...    
  Number of PPD points along a3 set to 1.  This is 
  the default value, it may have been provided also in the input file.
... done


--------------------------------------------------------------------------------
---------------------------------- INPUT FILE ----------------------------------
--------------------------------------------------------------------------------

task : geometryoptimization                                                     
do_properties : true                                                            
ddec_classical_hirshfeld T                                                      
dx_format T                                                                     
edft T                                                                          
edft_spin_fix 3                                                                 
output_detail VERBOSE                                                           
write_xyz T                                                                     
dispersion 4                                                                    
xc_functional PBE                                                               
cutoff_energy 830 eV                                                            
paw T                                                                           
geom_continuation T                                                             
geom_disp_tol 0.015 bohr                                                        
geom_energy_tol 1.5E-6 hartree                                                  
geom_force_tol 0.003 "ha/bohr"                                                  
EDFT_MAXIT 30                                                                   
pdos_max_l = 2                                                                  
dos_smear  0.1 eV                                                               
popn_calculate T                                                                
PDOS_PSEUDOATOMIC T                                                             
PDOS_REDUCE_SWS F                                                               
PDOS_CONSTRUCT_BASIS F                                                          
PDOS_LOWDIN T                                                                   
PDOS_ORTH_ATOM_BLOCKS F                                                         
PDOS_LCAO_OPTIMIZE F                                                            
pdos_optados_output T                                                           
homo_plot 0                                                                     
lumo_plot 0                                                                     
homo_dens_plot -1                                                               
lumo_dens_plot -1                                                               
%BLOCK SPECIES                                                                  
C C 6 4 9.0                                                                     
H H 1 1 9.0                                                                     
Li Li 3 5 9.0                                                                   
%ENDBLOCK SPECIES                                                               
%BLOCK SPECIES_POT                                                              
C "~/pp/paw/c_pbe_abinit.paw"                                                   
H "~/pp/paw/h_pbe_abinit.paw"                                                   
Li "~/pp/paw/li_pbe_abinit.paw"                                                 
%ENDBLOCK SPECIES_POT                                                           
%BLOCK SPECIES_ATOMIC_SET                                                       
C "SOLVE conf=2s2 2p2"                                                          
H "SOLVE conf=1s1"                                                              
Li "SOLVE conf=1s2 2s1 2p0"                                                     
%ENDBLOCK SPECIES_ATOMIC_SET                                                    
%BLOCK SPECIES_LDOS_GROUPS                                                      
C                                                                               
H                                                                               
Li                                                                              
%ENDBLOCK SPECIES_LDOS_GROUPS                                                   
%BLOCK LATTICE_CART                                                             
94.486315650000      0.000000000000       0.000000000000                        
0.000000000000       94.486315650000      0.000000000000                        
0.000000000000       0.000000000000       94.486315650000                       
%ENDBLOCK LATTICE_CART                                                          
%BLOCK POSITIONS_ABS                                                            
C 45.464998 50.697247 30.772194                                                 
C 45.463049 50.616299 36.843646                                                 
C 46.799602 53.034764 30.727847                                                 
C 48.152468 50.607255 36.839214                                                 
C 49.514011 48.384003 30.758124                                                 
C 49.491809 48.270685 36.813799                                                 
C 50.850046 50.719368 30.716900                                                 
C 52.182349 48.266190 36.773316                                                 
C 45.442269 55.357104 30.647937                                                 
C 45.473045 55.278147 36.849700                                                 
C 46.779512 57.694386 30.501794                                                 
C 48.162289 55.268866 36.855884                                                 
C 49.495384 53.042607 30.694303                                                 
C 49.499131 52.934922 36.841950                                                 
C 50.831158 55.377113 30.559841                                                 
C 52.193149 52.926086 36.825932                                                 
C 45.423737 50.462264 42.994335                                                 
C 45.367367 50.393188 49.045895                                                 
C 46.773731 52.791569 43.011785                                                 
C 48.059800 50.404568 49.083942                                                 
C 49.454797 48.140793 42.969852                                                 
C 49.416377 48.077637 49.115817                                                 
C 50.805234 50.468417 42.984425                                                 
C 52.110980 48.092567 49.248769                                                 
C 45.432827 55.122428 43.032335                                                 
C 45.350068 55.059936 49.114245                                                 
C 46.782383 57.452299 43.064810                                                 
C 48.039444 55.070275 49.156986                                                 
C 49.463679 52.795674 43.018563                                                 
C 49.393788 52.746157 49.146052                                                 
C 50.812953 55.126889 43.058555                                                 
C 52.083051 52.763513 49.273466                                                 
C 57.598488 48.412261 30.574351                                                 
C 57.557270 48.250585 36.658162                                                 
C 58.934498 50.739231 30.498692                                                 
C 60.276791 48.250594 36.585065                                                 
C 57.535818 48.156405 42.740876                                                 
C 57.475453 48.131587 49.704567                                                 
C 58.887499 50.479675 42.697936                                                 
C 60.200708 48.149218 49.927939                                                 
C 53.544334 50.728662 30.648726                                                 
C 53.529220 50.593743 36.777603                                                 
C 54.879765 53.058713 30.531278                                                 
C 56.223965 50.586569 36.722635                                                 
C 53.500115 50.475844 42.938520                                                 
C 53.436120 50.437400 49.353843                                                 
C 54.842897 52.804343 42.957450                                                 
C 56.115603 50.462835 49.608079                                                 
C 57.616740 43.770280 30.579897                                                 
C 57.550773 43.595346 36.602827                                                 
C 58.949860 46.088524 30.551319                                                 
C 60.264691 43.610538 36.546006                                                 
C 57.540911 43.497380 42.654434                                                 
C 57.503600 43.449534 49.810765                                                 
C 58.887790 45.821776 42.636533                                                 
C 60.206311 43.484476 50.107802                                                 
C 53.561826 46.078295 30.672759                                                 
C 53.519755 45.935189 36.715409                                                 
C 54.898251 48.404935 30.640445                                                 
C 56.215134 45.931681 36.662173                                                 
C 53.489018 45.820384 42.842996                                                 
C 53.465446 45.769058 49.360703                                                 
C 54.845628 48.151235 42.851183                                                 
C 56.155092 45.793036 49.597246                                                 
C 57.562904 57.688916 30.039519                                                 
C 57.591077 57.565868 37.010748                                                 
C 58.892387 60.040165 29.695038                                                 
C 60.323307 57.527211 36.995146                                                 
C 57.539727 57.468298 43.090422                                                 
C 57.430903 57.477149 49.571995                                                 
C 58.880337 59.822064 43.213365                                                 
C 60.136769 57.479392 49.711127                                                 
C 45.397258 64.673846 30.010366                                                 
C 45.506668 64.609604 36.921728                                                 
C 46.752803 67.014405 29.922506                                                 
C 48.185639 64.607281 36.972520                                                 
C 49.443488 62.345889 30.011707                                                 
C 49.537285 62.257824 37.006684                                                 
C 50.800360 64.710190 29.711624                                                 
C 52.233832 62.247854 37.106022                                                 
C 45.426499 64.441016 42.932100                                                 
C 45.306697 64.363918 49.805663                                                 
C 46.812040 66.783357 42.718440                                                 
C 47.992570 64.377064 49.819312                                                 
C 49.473743 62.114007 43.082500                                                 
C 49.358222 62.062443 49.556379                                                 
C 50.847087 64.469540 43.076332                                                 
C 52.042175 62.087454 49.532743                                                 
C 53.511949 60.025697 30.080281                                                 
C 53.559939 59.910144 37.047768                                                 
C 54.859287 62.385835 29.830676                                                 
C 56.260682 59.895663 37.128068                                                 
C 53.507085 59.786943 43.182502                                                 
C 53.393804 59.772177 49.424540                                                 
C 54.863137 62.145139 43.257397                                                 
C 56.084595 59.786185 49.483212                                                 
C 57.581007 53.056907 30.443434                                                 
C 57.573449 52.911392 36.753578                                                 
C 58.917293 55.381539 30.227785                                                 
C 60.301027 52.895866 36.699200                                                 
C 57.538978 52.809661 42.834535                                                 
C 57.442163 52.811742 49.743443                                                 
C 58.884382 55.162107 42.894488                                                 
C 60.159855 52.824792 50.060977                                                 
C 45.421675 60.009703 30.344237                                                 
C 45.485658 59.938300 36.888572                                                 
C 46.758400 62.344802 30.130896                                                 
C 48.179273 59.927706 36.910476                                                 
C 49.475560 57.700918 30.446641                                                 
C 49.515444 57.597823 36.893741                                                 
C 50.813933 60.027726 30.194905                                                 
C 52.207480 57.587718 36.931612                                                 
C 45.438322 59.781193 43.068760                                                 
C 45.327434 59.720222 49.345878                                                 
C 46.791292 62.111469 43.031217                                                 
C 48.017267 59.732174 49.375217                                                 
C 49.468912 57.454337 43.087135                                                 
C 49.373773 57.410124 49.262400                                                 
C 50.818262 59.787314 43.131840                                                 
C 52.058866 57.427098 49.328272                                                 
C 53.523508 55.379960 30.459011                                                 
C 53.543071 55.249456 36.871944                                                 
C 54.858629 57.710840 30.206843                                                 
C 56.237865 55.234457 36.864240                                                 
C 53.500125 55.131229 43.049823                                                 
C 53.411815 55.103101 49.357849                                                 
C 54.848177 57.466758 43.120094                                                 
C 56.102414 55.126006 49.551986                                                 
H 27.314090 41.275144 30.322905                                                 
H 28.250154 39.622838 36.455558                                                 
H 27.243527 41.157002 42.249228                                                 
H 28.223269 39.314083 50.039035                                                 
H 41.836576 30.294314 29.440619                                                 
C 42.867914 32.083078 29.558562                                                 
H 44.422414 30.203990 37.235851                                                 
H 41.782361 30.010502 43.015303                                                 
C 42.802314 31.814374 42.999020                                                 
H 44.476195 29.985413 49.320552                                                 
H 29.650276 37.255179 29.782888                                                 
C 30.661377 39.055672 29.902163                                                 
H 32.255459 37.285653 36.902390                                                 
H 33.704161 34.955488 29.327844                                                 
C 34.735832 36.740399 29.503234                                                 
H 29.561833 37.089161 42.415305                                                 
C 30.587063 38.881759 42.503280                                                 
H 32.267469 36.970053 50.210625                                                 
H 33.573932 34.714295 42.522764                                                 
C 34.634996 36.487967 42.625181                                                 
H 37.774826 32.625114 29.211734                                                 
C 38.795170 34.409956 29.424768                                                 
H 40.373803 32.557470 37.251178                                                 
H 37.698972 32.344834 42.362154                                                 
C 38.719094 34.132359 42.565887                                                 
H 40.462911 32.289993 50.071256                                                 
H 46.527476 30.308419 29.671859                                                 
H 46.447929 30.070703 43.349238                                                 
H 25.927267 48.342238 36.413932                                                 
C 27.996976 48.339940 36.473522                                                 
H 25.839769 48.061306 50.335861                                                 
C 27.902510 48.065025 50.174489                                                 
H 25.917484 43.679119 36.315527                                                 
H 27.294090 45.928899 30.516490                                                 
C 27.984186 43.662107 36.422016                                                 
H 25.854401 43.373041 50.124994                                                 
H 27.236141 45.837002 42.344045                                                 
C 27.919911 43.371690 50.080296                                                 
H 25.947605 57.671400 36.880683                                                 
H 27.214418 59.920463 29.819777                                                 
C 28.016192 57.673795 36.922939                                                 
H 25.831391 57.419888 49.882930                                                 
H 27.279947 59.846864 43.198961                                                 
C 27.895201 57.438621 49.767397                                                 
H 25.934736 53.015816 36.570633                                                 
H 27.232109 55.246686 30.210715                                                 
C 28.004769 53.006770 36.601368                                                 
H 25.843676 52.752070 50.254500                                                 
H 27.271876 55.219067 42.642601                                                 
C 27.905577 52.750279 50.095458                                                 
C 29.377188 41.276814 30.196018                                                 
C 29.269234 41.421261 36.495667                                                 
C 30.657535 43.660758 30.330944                                                 
C 31.972139 41.342998 36.657729                                                 
C 33.370039 39.004084 29.761090                                                 
C 33.309477 39.067059 36.844345                                                 
C 34.711501 41.363401 30.035319                                                 
C 35.987777 38.984015 37.046008                                                 
C 29.361179 45.945274 30.470093                                                 
C 29.279680 46.036865 36.486621                                                 
C 30.632622 48.293386 30.498092                                                 
C 31.995145 46.010186 36.585050                                                 
C 33.370430 43.662624 30.298627                                                 
C 33.324655 43.689463 36.669604                                                 
C 34.706326 45.994818 30.473398                                                 
C 36.024158 43.662902 36.775768                                                 
C 29.301672 41.139473 42.422627                                                 
C 29.243915 41.109158 50.031978                                                 
C 30.592133 43.515877 42.465325                                                 
C 31.937224 41.039203 49.973110                                                 
C 33.278428 38.793474 42.590158                                                 
C 33.315339 38.746582 50.035437                                                 
C 34.628354 41.154403 42.722150                                                 
C 35.977114 38.696436 50.030623                                                 
C 29.294556 45.838286 42.542683                                                 
C 29.198814 45.751650 50.068628                                                 
C 30.583750 48.173131 42.639004                                                 
C 31.925591 45.727504 49.867237                                                 
C 33.299972 43.488092 42.697759                                                 
C 33.276425 43.399592 49.828702                                                 
C 34.649723 45.826697 42.822832                                                 
C 35.982802 43.387623 49.635790                                                 
C 41.468881 39.050493 30.071425                                                 
C 41.404306 38.973102 36.916233                                                 
C 42.804003 41.367388 30.379900                                                 
C 44.093116 38.961562 36.917996                                                 
C 41.381169 38.792001 42.932091                                                 
C 41.418142 38.734649 49.630312                                                 
C 42.722107 41.128833 43.021110                                                 
C 44.089080 38.733709 49.421075                                                 
C 37.426623 41.360361 30.091948                                                 
C 37.360917 41.337030 36.899426                                                 
C 38.765439 43.686191 30.407588                                                 
C 40.063062 41.307258 36.878008                                                 
C 37.343322 41.138180 42.853417                                                 
C 37.337550 41.065044 49.733177                                                 
C 38.689478 43.473161 42.969274                                                 
C 40.031987 41.056145 49.528419                                                 
C 41.445149 34.377312 29.591591                                                 
C 41.406935 34.337892 37.075126                                                 
C 42.822615 36.722278 29.872871                                                 
C 44.068541 34.293621 37.228024                                                 
C 41.392900 34.105298 42.781798                                                 
C 41.470173 34.097890 49.847089                                                 
C 42.743496 36.452169 42.947124                                                 
C 44.119815 34.061046 49.549133                                                 
C 37.427295 36.678124 29.538085                                                 
C 37.360098 36.686948 37.000526                                                 
C 38.783118 39.042428 29.878845                                                 
C 40.026181 36.620314 36.975108                                                 
C 37.316726 36.416441 42.660411                                                 
C 37.383790 36.406764 49.879580                                                 
C 38.689757 38.792383 42.825038                                                 
C 40.084773 36.378589 49.917904                                                 
C 41.436446 48.345730 30.721156                                                 
C 41.424857 48.299269 36.819080                                                 
C 42.771687 50.685381 30.755705                                                 
C 44.116395 48.286703 36.838781                                                 
C 41.385432 48.132463 42.996777                                                 
C 41.338370 48.049835 49.104108                                                 
C 42.733747 50.460784 42.990619                                                 
C 44.030383 48.055347 49.052815                                                 
C 29.300442 55.254769 30.226075                                                 
C 29.298310 55.298649 36.755587                                                 
C 30.576991 57.556477 30.026871                                                 
C 32.014408 55.312415 36.805519                                                 
C 33.331872 52.958580 30.457547                                                 
C 33.355824 52.980687 36.707345                                                 
C 34.667004 55.280770 30.364147                                                 
C 36.053411 52.977302 36.760323                                                 
C 29.338617 55.203432 42.754004                                                 
C 29.195147 55.064304 49.878303                                                 
C 30.635070 57.492643 43.011103                                                 
C 31.908894 55.073346 49.634708                                                 
C 33.334894 52.836593 42.786001                                                 
C 33.258930 52.719403 49.590320                                                 
C 34.675537 55.154163 42.952930                                                 
C 35.948898 52.714133 49.329208                                                 
C 37.383633 50.659027 30.643055                                                 
C 37.392579 50.645794 36.751496                                                 
C 38.717509 52.993228 30.632700                                                 
C 40.085441 50.634991 36.799914                                                 
C 37.354420 50.473971 42.936038                                                 
C 37.292818 50.381211 49.268792                                                 
C 38.704834 52.802328 42.977726                                                 
C 39.984455 50.379974 49.126087                                                 
C 41.453432 43.689434 30.516174                                                 
C 41.415905 43.635408 36.838392                                                 
C 42.790444 46.024770 30.682373                                                 
C 44.107077 43.621123 36.825234                                                 
C 41.378027 43.464130 43.023514                                                 
C 41.360613 43.386894 49.262560                                                 
C 42.725391 45.798972 43.021988                                                 
C 44.055967 43.391569 49.146234                                                 
C 29.332920 50.604470 30.469214                                                 
C 29.286210 50.670994 36.546075                                                 
C 30.602090 52.931924 30.390728                                                 
C 32.007413 50.663419 36.613477                                                 
C 33.355588 48.304790 30.533908                                                 
C 33.344885 48.335475 36.629728                                                 
C 34.687567 50.642037 30.566316                                                 
C 36.043046 48.322431 36.709374                                                 
C 29.307586 50.514108 42.561201                                                 
C 29.189759 50.387420 50.074305                                                 
C 30.613023 52.849547 42.563689                                                 
C 31.921902 50.386220 49.792235                                                 
C 33.313307 48.155983 42.770586                                                 
C 33.272249 48.058903 49.676134                                                 
C 34.662825 50.484306 42.837133                                                 
C 35.954313 48.051267 49.426377                                                 
C 37.407484 46.004611 30.533896                                                 
C 37.382868 45.991314 36.759203                                                 
C 38.740512 48.335110 30.660981                                                 
C 40.075145 45.972520 36.812436                                                 
C 37.344639 45.812202 42.938014                                                 
C 37.312160 45.718560 49.402227                                                 
C 38.691524 48.136856 42.967600                                                 
C 39.999809 45.715632 49.226604                                                 
C 45.489892 32.095273 29.668140                                                 
C 45.479856 31.984072 37.204430                                                 
C 46.901932 34.392431 29.781014                                                 
C 48.084524 31.967335 37.173107                                                 
H 49.096360 30.160978 37.158342                                                 
H 50.609691 32.663988 29.536860                                                 
C 45.515740 36.730290 29.951472                                                 
C 45.454569 36.625100 37.053933                                                 
C 46.865024 39.072215 30.209248                                                 
C 48.141533 36.606194 37.037578                                                 
C 49.570866 34.449033 29.760260                                                 
C 49.513230 34.258487 37.198022                                                 
C 50.946189 36.754470 29.942720                                                 
C 52.191973 34.294258 37.200671                                                 
C 45.394921 31.842165 43.166290                                                 
C 45.521561 31.766154 49.401003                                                 
C 46.800069 34.142320 43.093209                                                 
C 48.114437 31.760842 49.377803                                                 
H 49.167225 29.978743 49.340084                                                 
H 50.479537 32.397665 43.018670                                                 
C 45.422190 36.472675 43.044912                                                 
C 45.458205 36.399177 49.424030                                                 
C 46.771394 38.806568 43.038752                                                 
C 48.136753 36.401883 49.362980                                                 
C 49.444327 34.187151 43.047744                                                 
C 49.512171 34.064542 49.465864                                                 
C 50.814316 36.457426 42.927420                                                 
C 52.142947 34.095847 49.726650                                                 
H 53.225496 32.503158 37.301063                                                 
H 53.169311 32.305075 49.870325                                                 
C 57.629307 39.155169 30.538956                                                 
C 57.561135 38.924261 36.582352                                                 
C 58.970443 41.423237 30.545440                                                 
C 60.267942 38.994512 36.510842                                                 
C 57.527245 38.848533 42.548195                                                 
C 57.524803 38.752117 50.081929                                                 
C 58.886714 41.128348 42.587652                                                 
C 60.224214 38.848312 50.203604                                                 
C 45.483742 46.037296 30.729984                                                 
C 45.455649 45.952807 36.827688                                                 
C 46.820031 48.370634 30.773187                                                 
C 48.145745 45.943820 36.802569                                                 
C 49.530518 43.728653 30.645666                                                 
C 49.486515 43.607096 36.767688                                                 
C 50.868695 46.063548 30.718296                                                 
C 52.174064 43.606906 36.717771                                                 
C 45.413898 45.800975 43.007508                                                 
C 45.390212 45.728713 49.066470                                                 
C 46.763776 48.131408 42.989021                                                 
C 48.083101 45.738593 49.094015                                                 
C 49.448497 43.480313 42.934972                                                 
C 49.444532 43.408842 49.171812                                                 
C 50.798713 45.809607 42.916733                                                 
C 52.131451 43.425083 49.320900                                                 
C 53.593863 41.427211 30.533312                                                 
C 53.522880 41.270508 36.699996                                                 
C 54.921805 43.752158 30.618623                                                 
C 56.216208 41.280475 36.620919                                                 
C 53.485293 41.162924 42.739080                                                 
C 53.479097 41.092964 49.551339                                                 
C 54.830019 43.486334 42.753982                                                 
C 56.178411 41.110815 49.804134                                                 
H 57.288627 34.872029 36.656539                                                 
H 58.672156 37.368372 30.531532                                                 
H 57.208200 34.677767 50.321327                                                 
H 58.569815 37.067583 42.375954                                                 
C 45.502933 41.380179 30.449656                                                 
C 45.448213 41.287411 36.839142                                                 
C 46.838940 43.711829 30.642036                                                 
C 48.143599 41.275452 36.821692                                                 
C 49.554851 39.092887 30.214211                                                 
C 49.495622 38.943217 36.901960                                                 
C 50.893224 41.407523 30.483102                                                 
C 52.187699 38.940916 36.824570                                                 
C 45.416720 41.138657 43.042233                                                 
C 45.421208 41.070425 49.211794                                                 
C 46.756655 43.467993 43.009948                                                 
C 48.112204 41.072781 49.195001                                                 
C 49.450056 38.812010 42.969558                                                 
C 49.465978 38.739107 49.333153                                                 
C 50.795179 41.147514 42.890097                                                 
C 52.141077 38.747563 49.572261                                                 
C 53.595916 36.804718 30.244593                                                 
C 53.567466 36.582781 36.905029                                                 
C 54.966322 39.088666 30.461802                                                 
C 56.228263 36.651590 36.691048                                                 
C 53.476308 36.510632 42.705182                                                 
C 53.499424 36.378548 49.855136                                                 
C 54.842514 38.788907 42.536317                                                 
C 56.173364 36.456578 50.113689                                                 
H 61.281779 37.191821 36.488194                                                 
H 62.696197 39.692543 30.484364                                                 
H 61.259821 37.061232 50.308653                                                 
H 62.618291 39.413719 42.538348                                                 
H 28.284571 61.693101 37.387249                                                 
H 28.162870 61.452762 49.420568                                                 
C 29.281704 59.934566 29.815516                                                 
C 29.306966 59.905713 37.196861                                                 
C 30.573425 62.194761 29.653905                                                 
C 32.023464 59.977040 37.268076                                                 
C 33.311918 57.603176 30.099874                                                 
C 33.358747 57.621000 36.997190                                                 
C 34.641830 59.933522 29.948710                                                 
C 36.062582 57.637156 36.937616                                                 
H 29.534637 63.977234 29.516571                                                 
H 32.347638 64.040564 37.440782                                                 
C 33.289355 62.296643 29.698405                                                 
C 33.381646 62.259177 37.250981                                                 
C 34.622245 64.577800 29.600690                                                 
C 36.052329 62.320859 37.144006                                                 
C 29.347071 59.864487 43.198587                                                 
C 29.186413 59.660483 49.517849                                                 
C 30.643530 62.094800 43.338512                                                 
C 31.890822 59.735564 49.404436                                                 
C 33.343637 57.498683 43.055167                                                 
C 33.241641 57.385531 49.418412                                                 
C 34.685164 59.807149 43.189502                                                 
C 35.929054 57.384790 49.285013                                                 
H 29.623741 63.890138 43.462938                                                 
H 32.189354 63.787297 49.288500                                                 
C 33.347707 62.164735 43.306500                                                 
C 33.229388 62.000399 49.315909                                                 
C 34.700152 64.429413 43.343904                                                 
C 35.896623 62.062845 49.328822                                                 
C 41.389729 57.665477 30.462480                                                 
C 41.441059 57.622558 36.875255                                                 
C 42.725255 59.993454 30.320214                                                 
C 44.133290 57.616784 36.864371                                                 
C 41.403266 57.458550 43.068240                                                 
C 41.306909 57.383457 49.181272                                                 
C 42.750351 59.785479 43.087262                                                 
C 43.993423 57.388774 49.192061                                                 
C 37.342728 59.958766 30.101220                                                 
C 37.403952 59.956571 37.017110                                                 
C 38.668454 62.294542 29.942552                                                 
C 40.099425 59.956360 36.964266                                                 
C 37.374990 59.803707 43.165039                                                 
C 37.261397 59.708353 49.275148                                                 
C 38.719083 62.125613 43.202998                                                 
C 39.950438 59.714334 49.274889                                                 
C 41.414762 53.008600 30.699264                                                 
C 41.432559 52.960830 36.821168                                                 
C 42.748526 55.343056 30.630581                                                 
C 44.124493 52.951760 36.839485                                                 
C 41.395640 52.796554 42.995925                                                 
C 41.320827 52.715104 49.085653                                                 
C 42.744433 55.123748 43.025622                                                 
C 44.013408 52.723452 49.062405                                                 
C 37.361955 55.307862 30.474111                                                 
C 37.402942 55.300295 36.831953                                                 
C 38.696250 57.646843 30.363945                                                 
C 40.092618 55.296208 36.834918                                                 
C 37.370877 55.139752 43.013579                                                 
C 37.283052 55.046941 49.227038                                                 
C 38.716965 57.464984 43.084065                                                 
C 39.968911 55.047998 49.137848                                                 
C 41.336012 67.007019 29.808469                                                 
C 41.503142 66.926889 37.045145                                                 
C 42.743259 69.313261 29.876281                                                 
C 44.149327 66.949482 36.903801                                                 
C 41.374680 66.792692 43.093651                                                 
C 41.272411 66.673417 49.821913                                                 
C 42.795949 69.094975 42.960919                                                 
C 43.900364 66.705464 50.005710                                                 
H 37.634249 68.741383 29.602535                                                 
H 40.484017 68.726367 37.117725                                                 
H 37.715608 68.558464 43.264128                                                 
H 40.233440 68.459980 49.910880                                                 
C 41.365475 62.313507 30.067976                                                 
C 41.463131 62.280274 37.030228                                                 
C 42.716621 64.664949 29.956667                                                 
C 44.146122 62.278570 36.936639                                                 
C 41.402546 62.118995 43.132742                                                 
C 41.283958 62.041189 49.436035                                                 
C 42.751950 64.448533 43.056112                                                 
C 43.962830 62.038921 49.514117                                                 
H 33.573792 66.352878 29.437717                                                 
H 33.665598 66.221002 43.413369                                                 
C 37.288429 64.655965 29.702997                                                 
C 37.432227 64.600303 37.192340                                                 
C 38.668731 66.953491 29.696870                                                 
C 40.103750 64.646925 37.213266                                                 
C 37.361223 64.481257 43.275138                                                 
C 37.257167 64.341883 49.431238                                                 
C 38.745291 66.763395 43.228624                                                 
C 39.902353 64.391982 49.555781                                                 
C 61.681553 41.493995 30.495033                                                 
C 61.553968 41.231037 36.503983                                                 
C 62.971130 43.728910 30.466944                                                 
H 63.618363 41.253123 36.479700                                                 
C 61.669455 46.107149 30.493895                                                 
C 61.551297 45.902204 36.528362                                                 
C 62.952411 48.407887 30.454373                                                 
H 63.618871 45.903170 36.468049                                                 
H 65.039387 43.749322 30.438972                                                 
C 61.593443 41.208290 42.561261                                                 
C 61.503886 41.107838 50.199863                                                 
C 62.904166 43.467537 42.538193                                                 
H 63.568804 41.126642 50.306713                                                 
C 61.619182 45.850460 42.536568                                                 
C 61.497346 45.815103 50.029892                                                 
C 62.914671 48.158932 42.514185                                                 
H 63.556351 45.817405 50.226628                                                 
H 64.971481 43.466800 42.504894                                                 
C 61.635769 55.368987 30.178492                                                 
C 61.598664 55.226895 36.801511                                                 
C 62.911356 57.743210 29.969684                                                 
H 63.666751 55.219560 36.776895                                                 
H 65.008754 53.085493 30.284075                                                 
C 61.607924 55.154343 42.788045                                                 
C 61.434273 55.181863 49.941953                                                 
C 62.893662 57.532367 42.971757                                                 
H 63.500755 55.200630 50.071031                                                 
H 64.974236 52.855355 42.567684                                                 
C 61.657911 50.743365 30.434467                                                 
C 61.570726 50.568260 36.589852                                                 
C 62.938311 53.077337 30.314800                                                 
H 65.024064 48.417028 30.414441                                                 
C 61.626918 50.483201 42.563594                                                 
C 61.468884 50.491402 50.054115                                                 
C 62.907089 52.843218 42.626749                                                 
H 64.981079 48.154087 42.429293                                                 
H 41.697124 71.096938 29.861356                                                 
H 44.525025 71.028789 36.719529                                                 
H 41.756786 70.883340 42.994100                                                 
H 44.276419 70.790458 50.398737                                                 
C 45.333980 69.312109 29.938021                                                 
C 45.568161 69.245450 36.799074                                                 
H 46.373261 71.099268 29.977340                                                 
C 48.157084 69.252873 36.846380                                                 
C 49.404425 66.988907 29.812726                                                 
C 49.567235 66.953458 37.007526                                                 
H 50.423348 68.787890 29.723644                                                 
C 52.230584 66.908436 37.124836                                                 
H 49.199894 71.038299 36.800029                                                 
C 45.377744 69.100207 42.741014                                                 
C 45.323979 69.013386 50.267278                                                 
H 46.416295 70.881643 42.593362                                                 
C 47.927716 69.025567 50.272139                                                 
C 49.453569 66.754429 42.885104                                                 
C 49.373512 66.731154 50.026318                                                 
H 50.484808 68.545163 42.792372                                                 
C 52.008818 66.718948 49.896569                                                 
H 48.956829 70.812616 50.418346                                                 
H 57.324804 66.324332 37.390563                                                 
H 57.084994 66.210355 49.644970                                                 
H 53.262964 68.699795 37.141987                                                 
H 53.031955 68.513909 50.012728                                                 
C 57.531165 62.322038 29.698931                                                 
C 57.610961 62.264760 37.274339                                                 
H 58.565739 64.101785 29.497133                                                 
C 60.326049 62.167288 37.279559                                                 
C 57.533300 62.081214 43.312776                                                 
C 57.417505 62.151828 49.516674                                                 
H 58.569254 63.869163 43.395608                                                 
C 60.122813 62.092754 49.530492                                                 
C 53.478345 64.662629 29.725561                                                 
C 53.612912 64.615065 37.221583                                                 
C 56.277494 64.543906 37.298891                                                 
C 53.493490 64.421869 43.211187                                                 
C 53.396044 64.450522 49.661443                                                 
C 56.057184 64.414146 49.590519                                                 
C 61.610049 59.973447 29.722046                                                 
C 61.616608 59.909433 37.148520                                                 
H 62.628347 61.764197 29.541516                                                 
H 63.682687 59.891719 37.137291                                                 
H 64.979894 57.742679 29.990184                                                 
H 61.362885 63.952201 37.379391                                                 
C 61.587917 59.750256 43.184980                                                 
C 61.424442 59.859644 49.621436                                                 
H 62.601298 61.547384 43.316530                                                 
H 63.492915 59.851729 49.649449                                                 
H 64.961917 57.527273 42.927894                                                 
H 61.138677 63.895005 49.490748                                                 
H 63.527965 50.503889 50.250540                                                 
H 36.373204 34.618403 50.161556                                                 
H 36.215933 66.128078 49.468634                                                 
H 27.246765 50.523114 42.364861                                                 
H 54.530003 66.210771 43.224027                                                 
H 63.639580 50.560145 36.536656                                                 
H 54.503810 34.723280 42.530905                                                 
H 36.313043 34.910812 37.146075                                                 
H 36.405225 66.388298 37.351772                                                 
H 54.502989 66.449933 29.541689                                                 
H 27.265323 50.589975 30.461721                                                 
H 54.646125 35.018017 30.181232                                                 
Li 58.949215 60.092154 33.641059                                                
Li 30.366520 43.455854 46.436843                                                
Li 43.904062 34.152757 33.265454                                                
Li 46.603435 67.019374 46.592049                                                
Li 60.354937 43.580360 46.118286                                                
Li 31.878734 60.185865 33.357072                                                
Li 51.122124 64.721768 33.598335                                                
Li 39.790218 64.934620 33.334495                                                
Li 60.502568 52.651885 46.194567                                                
Li 30.108417 52.608938 46.405587                                                
Li 35.614411 38.654460 46.158382                                                
Li 55.191648 38.346440 46.387208                                                
Li 35.966997 38.533570 33.211260                                                
Li 51.412683 34.914804 33.398320                                                
Li 39.199662 34.605089 46.430843                                                
Li 50.991840 34.494480 46.242600                                                
Li 55.491120 63.739800 46.242600                                                
%ENDBLOCK POSITIONS_ABS                                                         

--------------------------------------------------------------------------------
-------------------------------- END INPUT FILE --------------------------------
--------------------------------------------------------------------------------


 
<<<<<<<<<<<<<<<<<<<<<<<<<<<<<<<<< Full system >>>>>>>>>>>>>>>>>>>>>>>>>>>>>>>>>>
<<<<<<<<<<<<<<<<<<<<<<<<<<< PAW Dataset information >>>>>>>>>>>>>>>>>>>>>>>>>>>
File: ~/pp/paw/c_pbe_abinit.paw; rc = 1.25 bohr; shape type =  3; rshape = 1.25 bohr;
  Atomic number:  6;  ionic charge:  4.000000
    Partial Wave 1: l = 0
    Partial Wave 2: l = 0
    Partial Wave 3: l = 1
    Partial Wave 4: l = 1
  Core charge supplied for Nonlinear Core Corrections
File: ~/pp/paw/h_pbe_abinit.paw; rc = 0.90 bohr; shape type =  3; rshape = 0.90 bohr;
  Atomic number:  1;  ionic charge:  1.000000
    Partial Wave 1: l = 0
    Partial Wave 2: l = 0
File: ~/pp/paw/li_pbe_abinit.paw; rc = 1.42 bohr; shape type =  3; rshape = 1.42 bohr;
  Atomic number:  3;  ionic charge:  3.000000
    Partial Wave 1: l = 0
    Partial Wave 2: l = 0
    Partial Wave 3: l = 0
    Partial Wave 4: l = 1
    Partial Wave 5: l = 1
<<<<<<<<<<<<<<<<<<<<<<<<<<<<<<<<<<<<<<< >>>>>>>>>>>>>>>>>>>>>>>>>>>>>>>>>>>>>>>

-------------------------- Atom counting information ---------------------------
Symbol    Natoms    Nngwfs    Nprojs
  C        484      1936      3872
  H        108       108       216
  Li        17        85       153
.......   ......    ......    ......
Totals:    609      2129      4241
--------------------------------------------------------------------------------

=============================== PSINC grid sizes ===============================
                      Simulation cell:  189 x 189 x 189
                              FFT-box:  117 x 117 x 117
                                  PPD:    7 x   7 x   1
Grid space d1=  0.499927596032a0 (KE cutoff=  30.39413Eh = 827.06648eV)
Grid space d2=  0.499927596032a0 (KE cutoff=  30.39413Eh = 827.06648eV)
Grid space d3=  0.499927596032a0 (KE cutoff=  30.39413Eh = 827.06648eV)
================================================================================
  
WARNING in cell_grid_distribute:
Average of less than one 23-slab per node, so workload cannot be
equally balanced between nodes.

********************* Fourier parallelisation information **********************
       Coarse grid (whole simulation cell) dimensions:    189   189   189
          Real-space ('12') slabs/node (min max mean):      1     2     1
         Recip-space ('23') slabs/node (min max mean):      0     1     0
********************************************************************************

********************* Fourier parallelisation information **********************
       Double grid (whole simulation cell) dimensions:    378   378   378
          Real-space ('12') slabs/node (min max mean):      2     3     2
         Recip-space ('23') slabs/node (min max mean):      1     2     1
********************************************************************************

Atom SCF Calculation for C  : Z (AE atom) =   6 : Z (PS atom) =   4
Config String: 2s2 2p2
Orbitals (num,occ):  2     2.00 2.00
Orbitals   (num,l):  2        0    1
Real-space Grid (nr,dr,rmax): 1377    0.0065406977    9.0000000000
Spherical Bessel Basis (nsws,lmax,cutoff):   37    2  183.0099912382
Confining potential (l,width,scale):  0    3.0000000000  100.0000000000
Confining potential (l,width,scale):  1    3.0000000000  100.0000000000
  1         -5.4350126632   -1.2715272878    4.5135247139   -1.5681949477
  2         -5.3876836850   -1.3562195125    4.4235426751   -1.5380057521
  3         -5.3928844498   -1.3758175853    4.4021699684   -1.5318377811
  4         -5.3988962903   -1.3800385428    4.3975423583   -1.5307324410
  5         -5.4018428823   -1.3823489590    4.3950111904   -1.5301555648
  6         -5.4033571720   -1.3835805046    4.3936635548   -1.5298576834
  7         -5.4041480647   -1.3842324820    4.3929512000   -1.5297032953
  8         -5.4045641108   -1.3845769138    4.3925755232   -1.5296229456
  9         -5.4047838258   -1.3847587737    4.3923775340   -1.5295810042
 10         -5.4049001347   -1.3848548089    4.3922731819   -1.5295590658
 11         -5.4049618018   -1.3849055476    4.3922181562   -1.5295475724
 12         -5.4049945351   -1.3849323732    4.3921891206   -1.5295415432
 13         -5.4050119258   -1.3849465673    4.3921737867   -1.5295383767
 14         -5.4050211723   -1.3849540841    4.3921656816   -1.5295367119
 15         -5.4050260920   -1.3849580684    4.3921613935   -1.5295358358
 16         -5.4050287113   -1.3849601822    4.3921591228   -1.5295353742
 17         -5.4050301068   -1.3849613045    4.3921579192   -1.5295351307
 18         -5.4050308507   -1.3849619010    4.3921572806   -1.5295350022
 19         -5.4050312476   -1.3849622183    4.3921569415   -1.5295349343
 20         -5.4050314594   -1.3849623873    4.3921567612   -1.5295348984
 21         -5.4050315725   -1.3849624773    4.3921566653   -1.5295348794
 22         -5.4050316330   -1.3849625253    4.3921566143   -1.5295348693
Atom SCF converged after  22 iterations to a total energy of     -5.40503163

Atom SCF Calculation for H  : Z (AE atom) =   1 : Z (PS atom) =   1
Config String: 1s1
Orbitals (num,occ):  1     1.00
Orbitals   (num,l):  1        0
Real-space Grid (nr,dr,rmax): 1377    0.0065406977    9.0000000000
Spherical Bessel Basis (nsws,lmax,cutoff):   37    1  183.0099912382
Confining potential (l,width,scale):  0    3.0000000000  100.0000000000
  1         -0.3605254152   -0.2399954029    0.2820952946   -0.2424203210
  2         -0.4156854077   -0.2398249290    0.2871789324   -0.2464796203
  3         -0.4412552402   -0.2379720642    0.2899127187   -0.2499011370
  4         -0.4517265951   -0.2371980236    0.2908966173   -0.2514141636
  5         -0.4557775773   -0.2369735141    0.2911607883   -0.2519713623
  6         -0.4573363459   -0.2369240355    0.2912108681   -0.2521663171
  7         -0.4579443228   -0.2369187864    0.2912112833   -0.2522344454
  8         -0.4581858602   -0.2369215483    0.2912049187   -0.2522587615
  9         -0.4582834939   -0.2369242589    0.2912002081   -0.2522677042
 10         -0.4583235236   -0.2369258837    0.2911975892   -0.2522710965
 11         -0.4583401154   -0.2369267223    0.2911962825   -0.2522724192
 12         -0.4583470483   -0.2369271266    0.2911956643   -0.2522729467
 13         -0.4583499624   -0.2369273145    0.2911953803   -0.2522731607
 14         -0.4583511926   -0.2369274000    0.2911952521   -0.2522732486
 15         -0.4583517136   -0.2369274385    0.2911951948   -0.2522732850
 16         -0.4583519349   -0.2369274556    0.2911951693   -0.2522733002
 17         -0.4583520290   -0.2369274632    0.2911951581   -0.2522733066
Atom SCF converged after  17 iterations to a total energy of     -0.45835203

Atom SCF Calculation for Li : Z (AE atom) =   3 : Z (PS atom) =   3
Config String: 1s2 2s1 2p0
Orbitals (num,occ):  3     2.00 1.00 0.00
Orbitals   (num,l):  3        0    0    1
Real-space Grid (nr,dr,rmax): 1377    0.0065406977    9.0000000000
Spherical Bessel Basis (nsws,lmax,cutoff):   37    2  183.0099912382
Confining potential (l,width,scale):  0    3.0000000000  100.0000000000
Confining potential (l,width,scale):  1    3.0000000000  100.0000000000
  1         -6.0640888065   -4.6655401716    2.5388576516   -0.9989538799
  2         -6.9627542978   -4.0954079129    2.9808988108   -1.1965571426
  3         -7.2692687601   -3.8889996707    3.2029735703   -1.3193883705
  4         -7.3784440298   -3.8322099748    3.2868571989   -1.3711018151
  5         -7.4170278248   -3.8191968371    3.3144974220   -1.3911175539
  6         -7.4303549880   -3.8172386945    3.3228486489   -1.3986896266
  7         -7.4348052089   -3.8175483495    3.3251259310   -1.4015352495
  8         -7.4362242328   -3.8180607346    3.3256233205   -1.4026016384
  9         -7.4366459715   -3.8184145665    3.3256561549   -1.4029998726
 10         -7.4367560626   -3.8186169740    3.3256001574   -1.4031477379
 11         -7.4367765260   -3.8187239825    3.3255481763   -1.4032021548
 12         -7.4367751741   -3.8187782620    3.3255144587   -1.4032219192
 13         -7.4367707398   -3.8188051288    3.3254952336   -1.4032289600
 14         -7.4367680349   -3.8188156035    3.3254870176   -1.4032309087
 15         -7.4367661982   -3.8188217406    3.3254819951   -1.4032318132
 16         -7.4367650112   -3.8188253257    3.3254789583   -1.4032322224
 17         -7.4367642682   -3.8188274151    3.3254771375   -1.4032324006
 18         -7.4367638134   -3.8188286307    3.3254760529   -1.4032324736
 19         -7.4367635392   -3.8188293370    3.3254754103   -1.4032325004
 20         -7.4367633760   -3.8188297469    3.3254750310   -1.4032325080
 21         -7.4367632796   -3.8188299846    3.3254748079   -1.4032325082
Atom SCF converged after  21 iterations to a total energy of     -7.43676328

================================================================================
<<<<<<<<<<<<<<<< Resuming previous ONETEP Geometry Optimisation >>>>>>>>>>>>>>>>
================================================================================

 Geometry Optimisation: output file is "592nano.geom"
 
 Geometry Optimisation: write_hamiltonian parameter over-ridden to T
 Reading continuation file "592nano.continuation" ...done
 Geometry Optimisation: read_tightbox_ngwfs parameter over-ridden to TRUE
 Geometry Optimisation: read_hamiltonian parameter over-ridden to T
 
                           -------------------------------
                                     Cell Contents
                           -------------------------------
 
            xxxxxxxxxxxxxxxxxxxxxxxxxxxxxxxxxxxxxxxxxxxxxxxxxxxxxxxxxxxx
            x  Element    Atom      Absolute co-ordinates of atoms     x
            x            Number        x           y           z       x
            x----------------------------------------------------------x
            x    C         1       45.462158   50.695142   30.775201   x
            x    C         2       45.465887   50.613676   36.839799   x
            x    C         3       46.797867   53.031846   30.730684   x
            x    C         4       48.154976   50.605246   36.833152   x
            x    C         5       49.511668   48.382458   30.754503   x
            x    C         6       49.493722   48.269611   36.808347   x
            x    C         7       50.846793   50.719054   30.721763   x
            x    C         8       52.184694   48.263588   36.768180   x
            x    C         9       45.442435   55.353862   30.647082   x
            x    C        10       45.477437   55.273887   36.851046   x
            x    C        11       46.780200   57.691206   30.500158   x
            x    C        12       48.166620   55.264938   36.857918   x
            x    C        13       49.492989   53.042045   30.698232   x
            x    C        14       49.503108   52.931524   36.840446   x
            x    C        15       50.830199   55.375492   30.559710   x
            x    C        16       52.196617   52.922522   36.825977   x
            x    C        17       45.425091   50.457955   42.995326   x
            x    C        18       45.375122   50.394479   49.043963   x
            x    C        19       46.771558   52.786614   43.014293   x
            x    C        20       48.067809   50.408666   49.082179   x
            x    C        21       49.461318   48.129533   42.973845   x
            x    C        22       49.422902   48.075977   49.108848   x
            x    C        23       50.807611   50.458476   42.980777   x
            x    C        24       52.116302   48.095232   49.249326   x
            x    C        25       45.426463   55.118045   43.042698   x
            x    C        26       45.356508   55.064746   49.119545   x
            x    C        27       46.770319   57.447474   43.080206   x
            x    C        28       48.046962   55.082579   49.155092   x
            x    C        29       49.461734   52.785585   43.022445   x
            x    C        30       49.398427   52.755272   49.146347   x
            x    C        31       50.808513   55.116916   43.064358   x
            x    C        32       52.091162   52.779543   49.269426   x
            x    C        33       57.595349   48.414257   30.580931   x
            x    C        34       57.560897   48.246816   36.651320   x
            x    C        35       58.930239   50.741152   30.496696   x
            x    C        36       60.280218   48.245583   36.580775   x
            x    C        37       57.540843   48.149873   42.737126   x
            x    C        38       57.479740   48.140961   49.714534   x
            x    C        39       58.894775   50.471367   42.696372   x
            x    C        40       60.210853   48.158787   49.927866   x
            x    C        41       53.540917   50.728042   30.653468   x
            x    C        42       53.532766   50.590319   36.773686   x
            x    C        43       54.876582   53.057203   30.528750   x
            x    C        44       56.227557   50.582121   36.720650   x
            x    C        45       53.503434   50.464548   42.942232   x
            x    C        46       53.440358   50.448651   49.359564   x
            x    C        47       54.845590   52.790138   42.969958   x
            x    C        48       56.127102   50.467337   49.611982   x
            x    C        49       57.616292   43.769659   30.570501   x
            x    C        50       57.552476   43.589853   36.602581   x
            x    C        51       58.946509   46.090308   30.558408   x
            x    C        52       60.266193   43.605022   36.540792   x
            x    C        53       57.547222   43.495949   42.657359   x
            x    C        54       57.516041   43.464039   49.827905   x
            x    C        55       58.894352   45.821005   42.634064   x
            x    C        56       60.220077   43.500033   50.117932   x
            x    C        57       53.561349   46.075875   30.663763   x
            x    C        58       53.522054   45.931136   36.715996   x
            x    C        59       54.895817   48.404706   30.647268   x
            x    C        60       56.217677   45.927916   36.656366   x
            x    C        61       53.496797   45.807527   42.861497   x
            x    C        62       53.468990   45.771888   49.365785   x
            x    C        63       54.850244   48.139580   42.853204   x
            x    C        64       56.161536   45.805129   49.610428   x
            x    C        65       57.560731   57.689749   30.035900   x
            x    C        66       57.593349   57.559270   37.003711   x
            x    C        67       58.889898   60.042854   29.691728   x
            x    C        68       60.325054   57.520159   36.989527   x
            x    C        69       57.544675   57.448324   43.034474   x
            x    C        70       57.455897   57.488663   49.608821   x
            x    C        71       58.888321   59.784430   43.130359   x
            x    C        72       60.161330   57.474565   49.739811   x
            x    C        73       45.398077   64.671030   30.004380   x
            x    C        74       45.506912   64.606147   36.918533   x
            x    C        75       46.752614   67.011629   29.912414   x
            x    C        76       48.185892   64.603924   36.966416   x
            x    C        77       49.444055   62.343858   30.009521   x
            x    C        78       49.538993   62.254419   36.999191   x
            x    C        79       50.799819   64.708612   29.707769   x
            x    C        80       52.235764   62.244599   37.084310   x
            x    C        81       45.406857   64.442597   42.941050   x
            x    C        82       45.298059   64.372422   49.804472   x
            x    C        83       46.781187   66.781561   42.734898   x
            x    C        84       47.986036   64.394716   49.830412   x
            x    C        85       49.448405   62.107879   43.007386   x
            x    C        86       49.364766   62.081760   49.586458   x
            x    C        87       50.808831   64.465082   42.954353   x
            x    C        88       52.052706   62.112617   49.684203   x
            x    C        89       53.511537   60.025051   30.079721   x
            x    C        90       53.562268   59.906068   37.029949   x
            x    C        91       54.858072   62.386724   29.830371   x
            x    C        92       56.262926   59.891193   37.108543   x
            x    C        93       53.489642   59.755235   42.964959   x
            x    C        94       53.410759   59.796564   49.519083   x
            x    C        95       54.849508   62.108300   42.863676   x
            x    C        96       56.116606   59.803635   49.633517   x
            x    C        97       57.577062   53.057382   30.438543   x
            x    C        98       57.577214   52.905276   36.755257   x
            x    C        99       58.913996   55.382009   30.222357   x
            x    C       100       60.303779   52.888121   36.698458   x
            x    C       101       57.543761   52.796552   42.842074   x
            x    C       102       57.449605   52.824444   49.743011   x
            x    C       103       58.895428   55.141840   42.899408   x
            x    C       104       60.172858   52.828871   50.065775   x
            x    C       105       45.423104   60.006978   30.341317   x
            x    C       106       45.489353   59.934207   36.890450   x
            x    C       107       46.759508   62.342484   30.127458   x
            x    C       108       48.182541   59.923620   36.910916   x
            x    C       109       49.475839   57.698840   30.445485   x
            x    C       110       49.519277   57.593222   36.894567   x
            x    C       111       50.814163   60.025851   30.193885   x
            x    C       112       52.211023   57.582733   36.927669   x
            x    C       113       45.423666   59.775873   43.077590   x
            x    C       114       45.331787   59.727519   49.339437   x
            x    C       115       46.770837   62.108800   43.031088   x
            x    C       116       48.028533   59.750237   49.362768   x
            x    C       117       49.458588   57.445568   43.078392   x
            x    C       118       49.385846   57.429253   49.248149   x
            x    C       119       50.799750   59.775091   43.024862   x
            x    C       120       52.074879   57.454497   49.319131   x
            x    C       121       53.521706   55.378290   30.455824   x
[...]
 C   378 -- Li  606       -0.05     -0.00      5.41078
 C   229 -- C   235       -0.09      0.00      5.41102
 C   293 -- C   421       -0.09     -0.00      5.41201
 C    70 -- C   104       -0.09     -0.00      5.41215
 C   182 -- C   188       -0.09     -0.00      5.41259
 C    88 -- C   560       -0.08      0.00      5.41262
 C   309 -- C   377       -0.09      0.00      5.41276
 C   260 -- C   420       -0.09     -0.00      5.41281
 C    40 -- C    54       -0.09      0.00      5.41283
 C    52 -- C   338       -0.09     -0.00      5.41339
 C   293 -- C   295       -0.09      0.00      5.41367
 C   330 -- C   382       -0.09      0.00      5.41425
 C   205 -- C   207       -0.09      0.00      5.41428
 C    92 -- C   564       -0.09      0.00      5.41428
 C   205 -- C   263       -0.09      0.00      5.41431
 C   440 -- C   488       -0.09      0.00      5.41463
 C   377 -- C   391       -0.09      0.00      5.41466
 C   441 -- C   463       -0.08      0.00      5.41567
 C    53 -- C   395       -0.09      0.00      5.41642
 C   260 -- C   294       -0.08      0.00      5.41673
 C   466 -- C   538       -0.09     -0.00      5.41682
 C    75 -- C   463       -0.10     -0.00      5.41700
 C   186 -- C   212       -0.09      0.00      5.41713
 C    77 -- C    91       -0.08      0.00      5.41717
 C   186 -- C   192       -0.09     -0.00      5.41755
 C   409 -- C   485       -0.09     -0.00      5.41767
 C    87 -- C    93       -0.09      0.00      5.41809
 C   408 -- C   416       -0.09     -0.00      5.41818
 C   181 -- C   183       -0.09     -0.00      5.41819
 C   183 -- C   237       -0.08      0.00      5.41867
 C   233 -- C   239       -0.08      0.00      5.41902
 C    84 -- C   567       -0.09     -0.00      5.41944
 C    64 -- C   366       -0.09      0.00      5.41955
 C    40 -- C   102       -0.08      0.00      5.41973
 C    38 -- C   104       -0.08      0.00      5.42017
 C   103 -- C   525       -0.08      0.00      5.42058
 C   202 -- C   208       -0.09      0.00      5.42069
 C   220 -- C   238       -0.09      0.00      5.42128
 C   330 -- C   394       -0.08      0.00      5.42175
 C   333 -- C   365       -0.08      0.00      5.42186
 C    96 -- C   567       -0.08      0.00      5.42302
 C    65 -- C    91       -0.09      0.00      5.42305
 C   332 -- C   388       -0.08      0.00      5.42330
 C    79 -- C    89       -0.08      0.00      5.42493
 C   313 -- C   319       -0.09      0.00      5.42703
 C   238 -- C   314       -0.09      0.00      5.42837
 C   316 -- C   390       -0.08      0.00      5.42887
 C    56 -- C   342       -0.09     -0.00      5.42914
 C   224 -- C   242       -0.08      0.00      5.43011
 C    83 -- C   467       -0.09     -0.00      5.43203
 C    76 -- C   564       -0.08      0.00      5.43248
 C   477 -- C   485       -0.08      0.00      5.43378
 C   262 -- C   292       -0.08     -0.00      5.43413
 C   197 -- C   199       -0.09     -0.00      5.43553
 C   252 -- C   406       -0.09     -0.00      5.43759
 C    67 -- C   511       -0.09     -0.00      5.43885
 C   185 -- C   235       -0.08     -0.00      5.43885
 C   343 -- C   506       -0.08     -0.00      5.44287
 C   230 -- C   318       -0.09     -0.00      5.44347
 C   201 -- C   239       -0.08      0.00      5.44502
 C   385 -- C   395       -0.08      0.00      5.44746
 H   589 -- Li  600       -0.02      0.00      5.44837
 C   202 -- C   216       -0.08      0.00      5.45066
 C   198 -- C   204       -0.08     -0.00      5.45089
 C   368 -- C   394       -0.08      0.00      5.45474
 C   241 -- Li  607       -0.04      0.00      5.45627
 C   227 -- C   309       -0.08     -0.00      5.45650
 C   470 -- C   547       -0.08     -0.00      5.46652
 C    94 -- Li  609       -0.05     -0.00      5.46688
 C    68 -- C   556       -0.08     -0.00      5.46858
 C   253 -- C   413       -0.08     -0.00      5.46902
 H   581 -- Li  601       -0.02      0.00      5.47503
 H   146 -- Li  603       -0.03      0.00      5.48764
 H   519 -- Li  601       -0.02      0.00      5.50613
 H   587 -- Li  604       -0.01      0.00      5.51046
 H   544 -- Li  596       -0.02     -0.00      5.54301
 H   590 -- Li  599       -0.02      0.00      5.55399
 C   216 -- Li  607       -0.04     -0.00      5.55737
 C    93 -- Li  609       -0.06      0.00      5.57792
 C   385 -- Li  608       -0.05     -0.00      5.58280
 H   151 -- Li  595       -0.02      0.00      5.58777
 H   401 -- Li  598       -0.02     -0.00      5.59944
 C   324 -- Li  608       -0.08      0.00      5.62538
 H   412 -- Li  598       -0.02      0.00      5.63580
 C   318 -- C   331       -0.04     -0.00      5.64067
 H   548 -- Li  596       -0.02      0.00      5.64768
 C   469 -- Li  596       -0.05     -0.00      5.65382
 H   509 -- Li  597       -0.02      0.00      5.66029
 H   539 -- Li  599       -0.02      0.00      5.66081
 H   165 -- Li  594       -0.02      0.00      5.66415
 C   137 -- Li  607       -0.06     -0.00      5.66764
=============================================================


============== Orbital energy and occupancy information for spin 1 =============

      Total number of orbitals:    2129
        Occupancy sum (kernel):    1047.560881702
   Occupancy sum (eigenvalues):    1047.560881702
                 HOMO-LUMO gap:       0.002187912 Eh
                 Mid-gap level:      -0.094088407 Eh

                        Orbital | Energy (Eh) | Occupancy
                            1    -1.846713415   1.0000000
                        .......   ...........   .........
                         1039    -0.130717167   0.9999861
                         1040    -0.121537756   0.9997556
                         1041    -0.109954454   0.9906199
                         1042    -0.106955254   0.9761313
                         1043    -0.103945421   0.9407337
                         1044    -0.103669166   0.9354055
                         1045    -0.100338562   0.8357773
                         1046    -0.099626760   0.8022198
                         1047    -0.096132658   0.5744058
                         1048    -0.095182363   0.5011744
                        ....... -- gap at 0K -- .........
                         1049    -0.092994451   0.3344120
                         1050    -0.092273364   0.2853424
                         1051    -0.090757122   0.1973598
                         1052    -0.088089321   0.0961717
                         1053    -0.085191062   0.0406822
                         1054    -0.083113699   0.0214098
                         1055    -0.081408312   0.0126419
                         1056    -0.079122566   0.0061903
                         1057    -0.076744959   0.0029272
                         1058    -0.076366338   0.0025921
                        .......   ...........   .........
                         2129     0.771674534   0.0000000

================================================================================

============== Orbital energy and occupancy information for spin 2 =============

      Total number of orbitals:    2129
        Occupancy sum (kernel):    1047.439118297
   Occupancy sum (eigenvalues):    1047.439118297
                 HOMO-LUMO gap:       0.000944666 Eh
                 Mid-gap level:      -0.095489646 Eh

                        Orbital | Energy (Eh) | Occupancy
                            1    -1.846712869   1.0000000
                        .......   ...........   .........
                         1038    -0.138300416   0.9999985
                         1039    -0.130590720   0.9999851
                         1040    -0.121432934   0.9997406
                         1041    -0.109904181   0.9902841
                         1042    -0.106905584   0.9752825
                         1043    -0.103876684   0.9381440
                         1044    -0.103616584   0.9331438
                         1045    -0.100233422   0.8265676
                         1046    -0.099542033   0.7936369
                         1047    -0.095961979   0.5514083
                        ....... -- gap at 0K -- .........
                         1048    -0.095017313   0.4784591
                         1049    -0.092852245   0.3166082
                         1050    -0.092115435   0.2675875
                         1051    -0.090686503   0.1902640
                         1052    -0.087958111   0.0896521
                         1053    -0.085121045   0.0390286
                         1054    -0.083073998   0.0208435
                         1055    -0.081371192   0.0123146
                         1056    -0.079068872   0.0059873
                         1057    -0.076701419   0.0028450
                        .......   ...........   .........
                         2129     0.771675590   0.0000000

================================================================================

===================== Writing canonical molecular orbitals =====================
    Spin 1
| Orbital  Energy (eV)  Norm     |
| HOMO     -2.59004390  1.000000 | Writing "592nano_HOMO_UP.cube" ... done
Writing "592nano_HOMO_UP.dx" ... done
| LUMO     -2.53050778  1.000000 | Writing "592nano_LUMO_UP.cube" ... done
Writing "592nano_LUMO_UP.dx" ... done
================================================================================

===================== Writing canonical molecular orbitals =====================
    Spin 2
| Orbital  Energy (eV)  Norm     |
| HOMO     -2.61125832  1.000000 | Writing "592nano_HOMO_DN.cube" ... done
Writing "592nano_HOMO_DN.dx" ... done
| LUMO     -2.58555265  1.000000 | Writing "592nano_LUMO_DN.cube" ... done
Writing "592nano_LUMO_DN.dx" ... done
================================================================================

================== Local Density of States (LDOS) calculation ==================
Writing "592nano_UP_LDOS.txt" ...  done
================================================================================

================== Local Density of States (LDOS) calculation ==================
Writing "592nano_DN_LDOS.txt" ...  done
================================================================================
 
=============== Density of States (DOS) calculation for UP spin ================
Writing "592nano_UP_DOS.txt" ...  done
================================================================================
 
============== Density of States (DOS) calculation for DOWN spin ===============
Writing "592nano_DN_DOS.txt" ...  done
================================================================================
 
Writing bands to file "592nano.val_bands" ... done
 
================ Projected Density of States (pDOS) calculation ================
 
Constructing AM resolved functions  ...... done
Writing NGWF plot files in formats: CUBE DX ...  done
 
Performing overlap integrals ...  done
 
Computing pDOS weights ...  done
 
All bands spilling parameter =   4.01 %
Occupancy-weighted spilling parameter =   0.93 %
 
 => Outputting data for OptaDOS <=
 
Writing pDOS weights to file "592nano.val_pdos_bin" ... done
 
Writing band gradients to file "592nano.val_dome_bin" ... done
 
Writing Castep output cell file to "592nano-out.cell" ... done
 
 => Computing Gaussian smeared pDOS for UP spin<= 
Writing "592nano_UP_PDOS.txt" ...  done
 
 => Computing Gaussian smeared pDOS for DOWN spin<= 
Writing "592nano_DN_PDOS.txt" ...  done
 
 => Computing Occupancy-weighted Gaussian smeared pDOS for UP spin<= 
Writing "592nano_occ_UP_PDOS.txt" ...  done
  => Band centres for UP spin channel: 
 S band centre of group 1:  -15.957878 eV
 P band centre of group 1:   -7.871499 eV
  Band centres for UP spin channel done. <= 
  => Integrated number of electrons in each AM band for UP spin channel: 
 S num electrons of group 1:  282.094358
 P num electrons of group 1:  755.702496
  Integrated number of electrons for UP spin channel done. <= 
 
 => Computing Occupancy-weighted Gaussian smeared pDOS for DOWN spin<= 
Writing "592nano_occ_DN_PDOS.txt" ...  done
  => Band centres for DOWN spin channel: 
 S band centre of group 1:  -15.957496 eV
 P band centre of group 1:   -7.872406 eV
  Band centres for DOWN spin channel done. <=
  => Integrated number of electrons in each AM band for DOWN spin channel: 
 S num electrons of group 1:  282.094801
 P num electrons of group 1:  755.581878
  Integrated number of electrons for DOWN spin channel done. <=
================================================================================

================================= Core Density =================================
               Core den box size:   21 x  21 x  21
================================================================================
======================= Empirical dispersion information =======================
Model : Grimme D2
================================================================================

------------------------------ TIMING INFORMATION ------------------------------
AVERAGE TIME:    4339.065s on    160 node(s)                                    
TOTAL TIME:      4339.067s on    160 node(s)                                    
================= AVERAGE TIMINGS FROM ALL NODES (CUMULATIVE) ==================
|| TAG                                    #calls    cpu time   %total  Gflops ||
|| work_imbalance                       :     1        0.00s   0.000%  ------ ||
|| sparse_set_to_garbage                :    51        0.00s   0.000%  ------ ||
|| ewald_calculate_forces_realspace     :     2        0.00s   0.000%  ------ ||
|| paw_dij_hartree                      :   170        0.01s   0.000%  ------ ||
|| basis_extract_function_from_box      :   133        0.01s   0.000%  ------ ||
|| paw_sphere_density_on_grid           :     1        0.01s   0.000%  ------ ||
|| paw_tcore_density                    :     2        0.02s   0.000%  ------ ||
|| ngwfs_initialise_from_radial         :     1        0.02s   0.000%  ------ ||
|| augmentation_density_forces          :     2        0.14s   0.003%  ------ ||
|| ewald_calculate_energy               :     2        0.26s   0.006%  ------ ||
|| restart_hamiltonian_read             :     2        0.34s   0.008%  ------ ||
|| paw_tcore_hartree_on_grid            :     2        0.42s   0.010%  ------ ||
|| paw_dataset_init                     :     3        0.43s   0.010%  ------ ||
|| restart_hamiltonian_write            :     6        0.46s   0.011%  ------ ||
|| density_init_guess_real              :     2        0.47s   0.011%  ------ ||
|| ewald_calculate_forces_recipspace    :     2        0.50s   0.012%  ------ ||
|| ewald_calculate_forces               :     2        0.52s   0.012%  ------ ||
|| paw_nlcc_calculate_forces            :     2        0.83s   0.019%  ------ ||
|| pseudo_make_structure_factor         :     2        1.00s   0.023%  ------ ||
|| dense_normal_eigensolve              :     1        1.02s   0.024%  ------ ||
|| integrals_grad                       :     2        1.31s   0.030%  ------ ||
|| nonsc_forces_ngwfs_calc              :     2        1.35s   0.031%  ------ ||
|| augmentation_screen_dij              :   131        1.46s   0.034%  ------ ||
|| restart_ngwfs_tightbox_input         :     2        1.59s   0.037%  ------ ||
|| sparse_init                          :     2        1.76s   0.040%  ------ ||
|| paw_tcore_hartree_calc_forces        :     2        2.14s   0.049%  ------ ||
|| ngwf_gradient_coeffs                 :     4        2.18s   0.050%  ------ ||
|| sparse_embed_hotelling_invert_embed  :     7        2.29s   0.053%  ------ ||
|| fourier_apply_box_pair               :   275        3.07s   0.071%  2.371k ||
|| paw_species_calc_proj_prec_mat       :     2        4.38s   0.101%  ------ ||
|| basis_copy_function_to_box           :  4843        6.05s   0.139%  ------ ||
|| hartree_on_grid                      :   128        6.69s   0.154%  ------ ||
|| paw_dij_xc                           :   170        7.14s   0.165%  ------ ||
|| sw_init                              :     1        7.55s   0.174%  ------ ||
|| projectors_init_fftbox_recip         :    24        8.88s   0.205%  ------ ||
|| integrals_kinetic                    :     7        9.01s   0.208%  ------ ||
|| projectors_func_grad_ovlp_box        :     6        9.46s   0.218%  ------ ||
|| aug_nl_calculate_forces              :     2       11.20s   0.258%  ------ ||
|| projectors_func_ovlp_box             :     8       11.27s   0.260%  ------ ||
|| restart_kernel_write                 :     6       12.03s   0.277%  ------ ||
|| function_ops_brappd_ketppd           :    15       12.81s   0.295%  ------ ||
|| augmentation_density_on_grid         :   129       15.48s   0.357%  ------ ||
|| sparse_trace                         :  3094       16.79s   0.387%  ------ ||
|| aug_nonlocal_mat                     :   164       19.82s   0.457%  ------ ||
|| fourier_apply_cell_forward           :  1162       24.08s   0.555% 167.926 ||
|| fourier_apply_cell_backward          :  1162       25.75s   0.593% 157.087 ||
|| basis_dot_function_with_box          : 1.105M      29.95s   0.690%  ------ ||
|| restart_ngwfs_tightbox_output        :     3       43.65s   1.006%  ------ ||
|| hamiltonian_energy_components        :     2       47.74s   1.100%  ------ ||
|| xc_energy_potential                  :   129       49.90s   1.150%  ------ ||
|| forces_calculate                     :     2       50.01s   1.153%  ------ ||
|| sparse_product                       :  2992       68.45s   1.578%  ------ ||
|| dense_eigensolve                     :   232       74.47s   1.716%  ------ ||
|| eigenstates_pdos                     :     1       94.68s   2.182%  ------ ||
|| integrals_locpot_mat_els_batch       :    90      102.20s   2.355%  ------ ||
|| basis_add_function_to_box            : 3.161M     102.84s   2.370%  ------ ||
|| cell_grid_deposit_box_real           :  8352      141.88s   3.270%  ------ ||
|| projectors_gradient_batch            :     4      167.62s   3.863%  ------ ||
|| eigenstates_calculate                :     1      201.76s   4.650%  ------ ||
|| projectors_grad_precond_batch        :     4      232.69s   5.363%  ------ ||
|| density_batch_row_sums               :   129      249.51s   5.750%  ------ ||
|| edft_diag_ngwf_ham                   :   230      268.11s   6.179%  ------ ||
|| density_fftbox_deposit_to_cell       :  4128      272.05s   6.270%  ------ ||
|| fourier_apply_box                    : 15794      325.67s   7.506%  4.128k ||
|| potential_apply_to_ngwf_batch        :    90      330.08s   7.607%  ------ ||
|| density_fftbox_interpolate_multiply  :  4128      351.38s   8.098%  ------ ||
|| cell_grid_extract_box_real           :  2660      429.58s   9.900%  ------ ||
|| integrals_locpot_dbl_grid            :    90      435.17s  10.029%  ------ ||
|| edft_apply_smearing_operator         :   115      445.22s  10.261%  ------ ||
|| ngwf_gradient_build_batch            :     4      447.04s  10.303%  ------ ||
|| ngwf_gradient_batch                  :     4      485.20s  11.182%  ------ ||
|| ngwf_gradient_lnv                    :     4      489.98s  11.292%  ------ ||
|| density_batch_interp_deposit         :   129      769.16s  17.726%  ------ ||
|| density_on_dbl_grid                  :   129     1040.10s  23.971%  ------ ||
|| hamiltonian_lhxc_calculate           :   123     1103.62s  25.435%  ------ ||
|| properties_calculate                 :     1     1428.35s  32.918%  ------ ||
|| edft_calculate                       :     4     1942.11s  44.759%  ------ ||
|| ngwf_cg_optimise                     :     2     2806.95s  64.690%  ------ ||
|| total_time                           :     1     4339.07s 100.000%  ------ ||
================================================================================
Overhead of generating timer report: 
- 0 ms averaging over threads,
- 34 ms ensuring consistency across MPI ranks,
- 0 ms printing in order.

Job completed: 05-09-2020 04:09 (+0100)

