 +---------------------------------------------------------------+
 |                                                               |
 |        ####### #     # ####### ####### ####### ######         |
 |        #     # ##    # #          #    #       #     #        |
 |        #     # # #   # #          #    #       #     #        |
 |        #     # #  #  # #####      #    #####   ######         |
 |        #     # #   # # #          #    #       #              |
 |        #     # #    ## #          #    #       #              |
 |        ####### #     # #######    #    ####### #              |
 |                                                               |
 |        Linear-Scaling Ab Initio Total Energy Program          |
 |                                                               |
 |          Release for academic collaborators of ODG            |
 |                                             Version 5.3.2.12  |
 |                                                               |
 +---------------------------------------------------------------+
 |                                                               |
 |  Authors:                                                     |
 |  Jacek Dziedzic, Peter D. Haynes, Nicholas D. M. Hine,        |
 |  Arash. A. Mostofi, Mike C. Payne and Chris-Kriton Skylaris   |
 |                                                               |
 |  Contributors:                                                |
 |  J. Aarons, L. Andrinopoulos, P. W. Avraam, R. A. Bell,       |
 |  A. Bhandari, G. A. Bramley, R. J. Charlton, S. J. Clark,     |
 |  R. J. Clements, G. C. Constantinescu, F. Corsetti,           |
 |  N. Corsini, O. Dieguez, S. M. M. Dubois, K. K. B. Duff,      |
 |  J. M. Escartin, A. Greco, H. Helal, Q. O. Hill, L. P. Lee,   |
 |  J.-H. Li, E. B. Linscott, G. Moynihan, D. D. O`Regan,        |
 |  O. K. Okan, M. J. S. Phipps, C. J. Pickard,                  |
 |  J. C. A. Prentice, M. I. J. Probert, L. E. Ratcliff,         |
 |  M. Robinson, A. Ruiz Serrano, J. S. Spencer, E. W. Tait,     |
 |  G. Teobaldi, D. Turban, V. Vitale, K. A. Wilkinson,          |
 |  C. Weber, J. C. Womack, N. Yeung and T. J. Zuehlsdorff       |
 |                                                               |
 |                                   Copyright (c) 2004-2020     |
 |                                                               |
 |  Please cite:                                                 |
 |  "Introducing ONETEP: Linear-scaling density functional       |
 |   simulations on parallel computers".                         |
 |   C.-K. Skylaris, P. D. Haynes, A. A. Mostofi, M. C. Payne.   |
 |   J. Chem. Phys. 122 084119 (2005).                           |
 |                                                               |
 |          in all publications arising from your use of ONETEP. |
 |                                                               |
 +---------------------------------------------------------------+
 |                                                               |
 |   ONETEP is based on developments described in the following  |
 |   publications:                                               |
 |                                                               |
 |  "Nonorthogonal generalized Wannier function pseudopotential  |
 |   plane-wave method".                                         |
 |   C.-K. Skylaris, A. A. Mostofi, P. D. Haynes, O. Dieguez,    |
 |   M. C. Payne.                                                |
 |   Phys. Rev. B 66 035119 (2002).                              |
 |                                                               |
 |  "Preconditioned iterative minimization for linear-scaling    |
 |   electronic structure calculations".                         |
 |   A. A. Mostofi, P. D. Haynes, C.-K. Skylaris, M. C. Payne.   |
 |   J. Chem. Phys. 119(17), pp.8842-8848 (2003).                |
 |                                                               |
 |  "Total-energy calculations on a real space grid with         |
 |   localized functions and a plane-wave basis".                |
 |   A. A. Mostofi, C.-K. Skylaris, P. D. Haynes, M. C. Payne.   |
 |   Comput. Phys. Commun. 147, pp.788-802 (2002).               |
 |                                                               |
 |  "Accurate kinetic energy evaluation in electronic structure  |
 |   calculations with localized functions on real space grids"  |
 |   C.-K. Skylaris, A. A. Mostofi, P. D. Haynes, C. J. Pickard, |
 |   M. C. Payne.                                                |
 |   Comput. Phys. Commun. 140, pp.315-322 (2001).               |
 |                                                               |
 |  "Accurate ionic forces and geometry optimization in linear-  |
 |   scaling density-functional theory with local orbitals"      |
 |   N. D. M. Hine, M. Robinson, P. D. Haynes, C.-K. Skylaris,   |
 |   M. C. Payne, and A. A. Mostofi.                             |
 |   Phys. Rev. B 83 195102 (2011).                              |
 |                                                               |
 +---------------------------------------------------------------+

Job started: 10-03-2020 13:39 (-0000)
 
Reading parameters from file "10.0618_GO_manual_4x64graphite.dat" ...

WARNING: "cutoff_energy" not specified, but "psinc_spacing" specified.
         Using the latter to set the KE cutoff energy to  732.32021eV,
         thus *overriding* the default.

... done

If your calculation crashes here, before "Checking processes and threads..."
is displayed, then your stack size is insufficient.
If so, use "ulimit -s unlimited" at runtime.
You can disable this check with "check_stack_size F".

Checking processes and threads...
   Determining the default number of threads...
      No default threads set at compilation time: defaulting to 1.
      OpenMP library call suggests 4 threads.
      Hybrid MPI-OpenMP compilation detected.
      Number of MPI processes > 1.
      OMP_NUM_THREADS environment variable present and
      its value matches the one obtained from the OpenMP library call.
      Using this value as default.
      Default threads: 4
      Default applies to threads_max and threads_num_fftboxes.
      Settings in the input file override this default.
   ... done

   Running with 40 MPI processes.
   There are 10 MPI processes running on the same node as the root process.
   Each MPI process is using: 
               1 threads for simulation cell FFTs.
               1 threads for parallel FFT box operations.
               4 threads for loops over batched FFT box operations.
               4 threads in other parallel regions.
... done

Basic input checks...
Resetting ngwf_cg_rotate to TRUE for EDFT calculations
... done

Reading geometry and species blocks from file "10.0618_GO_manual_4x64graphite.dat" ...
    
  PSINC grid spacing along a1 set to   0.511215680000a0 from input file.
  PSINC grid spacing along a2 set to   0.531284090000a0 from input file.
  PSINC grid spacing along a3 set to   0.507042280000a0 from input file.
  Number of PPD points along a3 set to 1.  This is 
  the default value, it may have been provided also in the input file.
... done
 Writing xyz coordinates to file "10.0618_GO_manual_4x64graphite.xyz" ... done


--------------------------------------------------------------------------------
---------------------------------- INPUT FILE ----------------------------------
--------------------------------------------------------------------------------

task : singlepoint                                                              
do_properties : true                                                            
dx_format T                                                                     
edft T                                                                          
output_detail VERBOSE                                                           
write_xyz T                                                                     
xc_functional AVV10S                                                            
PSINC_SPACING 0.51121568 0.53128409 0.50704228                                  
paw T                                                                           
pdos_max_l = 2                                                                  
dos_smear  0.1 eV                                                               
popn_calculate T                                                                
PDOS_PSEUDOATOMIC T                                                             
PDOS_REDUCE_SWS F                                                               
PDOS_CONSTRUCT_BASIS F                                                          
PDOS_LOWDIN T                                                                   
PDOS_ORTH_ATOM_BLOCKS F                                                         
PDOS_LCAO_OPTIMIZE F                                                            
pdos_optados_output T                                                           
homo_plot 0                                                                     
lumo_plot 0                                                                     
homo_dens_plot -1                                                               
lumo_dens_plot -1                                                               
%BLOCK SPECIES                                                                  
C C 6 4 9.0                                                                     
%ENDBLOCK SPECIES                                                               
%BLOCK SPECIES_POT                                                              
C "~/pp/paw/c_pbe_abinit.paw"                                                   
%ENDBLOCK SPECIES_POT                                                           
%BLOCK SPECIES_ATOMIC_SET                                                       
C "SOLVE conf=2s2 2p2"                                                          
%ENDBLOCK SPECIES_ATOMIC_SET                                                    
%BLOCK LATTICE_CART                                                             
32.21  0.00  0.00                                                               
0.00 18.59  0.00                                                                
0.00  0.00 190.14                                                               
%ENDBLOCK LATTICE_CART                                                          
%BLOCK POSITIONS_ABS                                                            
C  0.00  0.00  9.51                                                             
C  0.00  0.00 47.54                                                             
C  0.00  0.00 85.56                                                             
C  0.00  0.00 123.59                                                            
C  0.00  0.00 161.62                                                            
C  0.00  4.65  9.51                                                             
C  0.00  4.65 47.54                                                             
C  0.00  4.65 85.56                                                             
C  0.00  4.65 123.59                                                            
C  0.00  4.65 161.62                                                            
C  4.03  2.32  9.51                                                             
C  4.03  2.32 47.54                                                             
C  4.03  2.32 85.56                                                             
C  4.03  2.32 123.59                                                            
C  4.03  2.32 161.62                                                            
C  8.05  0.00  9.51                                                             
C  8.05  0.00 47.54                                                             
C  8.05  0.00 85.56                                                             
C  8.05  0.00 123.59                                                            
C  8.05  0.00 161.62                                                            
C  0.00  9.30  9.51                                                             
C  0.00  9.30 47.54                                                             
C  0.00  9.30 85.56                                                             
C  0.00  9.30 123.59                                                            
C  0.00  9.30 161.62                                                            
C  4.03  6.97  9.51                                                             
C  4.03  6.97 47.54                                                             
C  4.03  6.97 85.56                                                             
C  4.03  6.97 123.59                                                            
C  4.03  6.97 161.62                                                            
C  8.05  4.65  9.51                                                             
C  8.05  4.65 47.54                                                             
C  8.05  4.65 85.56                                                             
C  8.05  4.65 123.59                                                            
C  8.05  4.65 161.62                                                            
C 12.08  2.32  9.51                                                             
C 12.08  2.32 47.54                                                             
C 12.08  2.32 85.56                                                             
C 12.08  2.32 123.59                                                            
C 12.08  2.32 161.62                                                            
C 16.10  0.00  9.51                                                             
C 16.10  0.00 47.54                                                             
C 16.10  0.00 85.56                                                             
C 16.10  0.00 123.59                                                            
C 16.10  0.00 161.62                                                            
C  0.00 13.95  9.51                                                             
C  0.00 13.95 47.54                                                             
C  0.00 13.95 85.56                                                             
C  0.00 13.95 123.59                                                            
C  0.00 13.95 161.62                                                            
C  4.03 11.62  9.51                                                             
C  4.03 11.62 47.54                                                             
C  4.03 11.62 85.56                                                             
C  4.03 11.62 123.59                                                            
C  4.03 11.62 161.62                                                            
C  8.05  9.30  9.51                                                             
C  8.05  9.30 47.54                                                             
C  8.05  9.30 85.56                                                             
C  8.05  9.30 123.59                                                            
C  8.05  9.30 161.62                                                            
C 12.08  6.97  9.51                                                             
C 12.08  6.97 47.54                                                             
C 12.08  6.97 85.56                                                             
C 12.08  6.97 123.59                                                            
C 12.08  6.97 161.62                                                            
C 16.10  4.65  9.51                                                             
C 16.10  4.65 47.54                                                             
C 16.10  4.65 85.56                                                             
C 16.10  4.65 123.59                                                            
C 16.10  4.65 161.62                                                            
C 20.13  2.32  9.51                                                             
C 20.13  2.32 47.54                                                             
C 20.13  2.32 85.56                                                             
C 20.13  2.32 123.59                                                            
C 20.13  2.32 161.62                                                            
C 24.16  0.00  9.51                                                             
C 24.16  0.00 47.54                                                             
C 24.16  0.00 85.56                                                             
C 24.16  0.00 123.59                                                            
C 24.16  0.00 161.62                                                            
C  4.03 16.27  9.51                                                             
C  4.03 16.27 47.54                                                             
C  4.03 16.27 85.56                                                             
C  4.03 16.27 123.59                                                            
C  4.03 16.27 161.62                                                            
C  8.05 13.95  9.51                                                             
C  8.05 13.95 47.54                                                             
C  8.05 13.95 85.56                                                             
C  8.05 13.95 123.59                                                            
C  8.05 13.95 161.62                                                            
C 12.08 11.62  9.51                                                             
C 12.08 11.62 47.54                                                             
C 12.08 11.62 85.56                                                             
C 12.08 11.62 123.59                                                            
C 12.08 11.62 161.62                                                            
C 16.10  9.30  9.51                                                             
C 16.10  9.30 47.54                                                             
C 16.10  9.30 85.56                                                             
C 16.10  9.30 123.59                                                            
C 16.10  9.30 161.62                                                            
C 20.13  6.97  9.51                                                             
C 20.13  6.97 47.54                                                             
C 20.13  6.97 85.56                                                             
C 20.13  6.97 123.59                                                            
C 20.13  6.97 161.62                                                            
C 24.16  4.65  9.51                                                             
C 24.16  4.65 47.54                                                             
C 24.16  4.65 85.56                                                             
C 24.16  4.65 123.59                                                            
C 24.16  4.65 161.62                                                            
C 28.18  2.32  9.51                                                             
C 28.18  2.32 47.54                                                             
C 28.18  2.32 85.56                                                             
C 28.18  2.32 123.59                                                            
C 28.18  2.32 161.62                                                            
C 12.08 16.27  9.51                                                             
C 12.08 16.27 47.54                                                             
C 12.08 16.27 85.56                                                             
C 12.08 16.27 123.59                                                            
C 12.08 16.27 161.62                                                            
C 16.10 13.95  9.51                                                             
C 16.10 13.95 47.54                                                             
C 16.10 13.95 85.56                                                             
C 16.10 13.95 123.59                                                            
C 16.10 13.95 161.62                                                            
C 20.13 11.62  9.51                                                             
C 20.13 11.62 47.54                                                             
C 20.13 11.62 85.56                                                             
C 20.13 11.62 123.59                                                            
C 20.13 11.62 161.62                                                            
C 24.16  9.30  9.51                                                             
C 24.16  9.30 47.54                                                             
C 24.16  9.30 85.56                                                             
C 24.16  9.30 123.59                                                            
C 24.16  9.30 161.62                                                            
C 28.18  6.97  9.51                                                             
C 28.18  6.97 47.54                                                             
C 28.18  6.97 85.56                                                             
C 28.18  6.97 123.59                                                            
C 28.18  6.97 161.62                                                            
C 20.13 16.27  9.51                                                             
C 20.13 16.27 47.54                                                             
C 20.13 16.27 85.56                                                             
C 20.13 16.27 123.59                                                            
C 20.13 16.27 161.62                                                            
C 24.16 13.95  9.51                                                             
C 24.16 13.95 47.54                                                             
C 24.16 13.95 85.56                                                             
C 24.16 13.95 123.59                                                            
C 24.16 13.95 161.62                                                            
C 28.18 11.62  9.51                                                             
C 28.18 11.62 47.54                                                             
C 28.18 11.62 85.56                                                             
C 28.18 11.62 123.59                                                            
C 28.18 11.62 161.62                                                            
C 28.18 16.27  9.51                                                             
C 28.18 16.27 47.54                                                             
C 28.18 16.27 85.56                                                             
C 28.18 16.27 123.59                                                            
C 28.18 16.27 161.62                                                            
C  0.00  0.00 28.52                                                             
C  0.00  0.00 66.55                                                             
C  0.00  0.00 104.58                                                            
C  0.00  0.00 142.61                                                            
C  0.00  0.00 180.63                                                            
C  0.00  4.65 28.52                                                             
C  0.00  4.65 66.55                                                             
C  0.00  4.65 104.58                                                            
C  0.00  4.65 142.61                                                            
C  0.00  4.65 180.63                                                            
C  4.03  2.32 28.52                                                             
C  4.03  2.32 66.55                                                             
C  4.03  2.32 104.58                                                            
C  4.03  2.32 142.61                                                            
C  4.03  2.32 180.63                                                            
C  8.05  0.00 28.52                                                             
C  8.05  0.00 66.55                                                             
C  8.05  0.00 104.58                                                            
C  8.05  0.00 142.61                                                            
C  8.05  0.00 180.63                                                            
C  0.00  9.30 28.52                                                             
C  0.00  9.30 66.55                                                             
C  0.00  9.30 104.58                                                            
C  0.00  9.30 142.61                                                            
C  0.00  9.30 180.63                                                            
C  4.03  6.97 28.52                                                             
C  4.03  6.97 66.55                                                             
C  4.03  6.97 104.58                                                            
C  4.03  6.97 142.61                                                            
C  4.03  6.97 180.63                                                            
C  8.05  4.65 28.52                                                             
C  8.05  4.65 66.55                                                             
C  8.05  4.65 104.58                                                            
C  8.05  4.65 142.61                                                            
C  8.05  4.65 180.63                                                            
C 12.08  2.32 28.52                                                             
C 12.08  2.32 66.55                                                             
C 12.08  2.32 104.58                                                            
C 12.08  2.32 142.61                                                            
C 12.08  2.32 180.63                                                            
C 16.10  0.00 28.52                                                             
C 16.10  0.00 66.55                                                             
C 16.10  0.00 104.58                                                            
C 16.10  0.00 142.61                                                            
C 16.10  0.00 180.63                                                            
C  0.00 13.95 28.52                                                             
C  0.00 13.95 66.55                                                             
C  0.00 13.95 104.58                                                            
C  0.00 13.95 142.61                                                            
C  0.00 13.95 180.63                                                            
C  4.03 11.62 28.52                                                             
C  4.03 11.62 66.55                                                             
C  4.03 11.62 104.58                                                            
C  4.03 11.62 142.61                                                            
C  4.03 11.62 180.63                                                            
C  8.05  9.30 28.52                                                             
C  8.05  9.30 66.55                                                             
C  8.05  9.30 104.58                                                            
C  8.05  9.30 142.61                                                            
C  8.05  9.30 180.63                                                            
C 12.08  6.97 28.52                                                             
C 12.08  6.97 66.55                                                             
C 12.08  6.97 104.58                                                            
C 12.08  6.97 142.61                                                            
C 12.08  6.97 180.63                                                            
C 16.10  4.65 28.52                                                             
C 16.10  4.65 66.55                                                             
C 16.10  4.65 104.58                                                            
C 16.10  4.65 142.61                                                            
C 16.10  4.65 180.63                                                            
C 20.13  2.32 28.52                                                             
C 20.13  2.32 66.55                                                             
C 20.13  2.32 104.58                                                            
C 20.13  2.32 142.61                                                            
C 20.13  2.32 180.63                                                            
C 24.16  0.00 28.52                                                             
C 24.16  0.00 66.55                                                             
C 24.16  0.00 104.58                                                            
C 24.16  0.00 142.61                                                            
C 24.16  0.00 180.63                                                            
C  4.03 16.27 28.52                                                             
C  4.03 16.27 66.55                                                             
C  4.03 16.27 104.58                                                            
C  4.03 16.27 142.61                                                            
C  4.03 16.27 180.63                                                            
C  8.05 13.95 28.52                                                             
C  8.05 13.95 66.55                                                             
C  8.05 13.95 104.58                                                            
C  8.05 13.95 142.61                                                            
C  8.05 13.95 180.63                                                            
C 12.08 11.62 28.52                                                             
C 12.08 11.62 66.55                                                             
C 12.08 11.62 104.58                                                            
C 12.08 11.62 142.61                                                            
C 12.08 11.62 180.63                                                            
C 16.10  9.30 28.52                                                             
C 16.10  9.30 66.55                                                             
C 16.10  9.30 104.58                                                            
C 16.10  9.30 142.61                                                            
C 16.10  9.30 180.63                                                            
C 20.13  6.97 28.52                                                             
C 20.13  6.97 66.55                                                             
C 20.13  6.97 104.58                                                            
C 20.13  6.97 142.61                                                            
C 20.13  6.97 180.63                                                            
C 24.16  4.65 28.52                                                             
C 24.16  4.65 66.55                                                             
C 24.16  4.65 104.58                                                            
C 24.16  4.65 142.61                                                            
C 24.16  4.65 180.63                                                            
C 28.18  2.32 28.52                                                             
C 28.18  2.32 66.55                                                             
C 28.18  2.32 104.58                                                            
C 28.18  2.32 142.61                                                            
C 28.18  2.32 180.63                                                            
C 12.08 16.27 28.52                                                             
C 12.08 16.27 66.55                                                             
C 12.08 16.27 104.58                                                            
C 12.08 16.27 142.61                                                            
C 12.08 16.27 180.63                                                            
C 16.10 13.95 28.52                                                             
C 16.10 13.95 66.55                                                             
C 16.10 13.95 104.58                                                            
C 16.10 13.95 142.61                                                            
C 16.10 13.95 180.63                                                            
C 20.13 11.62 28.52                                                             
C 20.13 11.62 66.55                                                             
C 20.13 11.62 104.58                                                            
C 20.13 11.62 142.61                                                            
C 20.13 11.62 180.63                                                            
C 24.16  9.30 28.52                                                             
C 24.16  9.30 66.55                                                             
C 24.16  9.30 104.58                                                            
C 24.16  9.30 142.61                                                            
C 24.16  9.30 180.63                                                            
C 28.18  6.97 28.52                                                             
C 28.18  6.97 66.55                                                             
C 28.18  6.97 104.58                                                            
C 28.18  6.97 142.61                                                            
C 28.18  6.97 180.63                                                            
C 20.13 16.27 28.52                                                             
C 20.13 16.27 66.55                                                             
C 20.13 16.27 104.58                                                            
C 20.13 16.27 142.61                                                            
C 20.13 16.27 180.63                                                            
C 24.16 13.95 28.52                                                             
C 24.16 13.95 66.55                                                             
C 24.16 13.95 104.58                                                            
C 24.16 13.95 142.61                                                            
C 24.16 13.95 180.63                                                            
C 28.18 11.62 28.52                                                             
C 28.18 11.62 66.55                                                             
C 28.18 11.62 104.58                                                            
C 28.18 11.62 142.61                                                            
C 28.18 11.62 180.63                                                            
C 28.18 16.27 28.52                                                             
C 28.18 16.27 66.55                                                             
C 28.18 16.27 104.58                                                            
C 28.18 16.27 142.61                                                            
C 28.18 16.27 180.63                                                            
C  1.34  2.32  9.51                                                             
C  1.34  2.32 47.54                                                             
C  1.34  2.32 85.56                                                             
C  1.34  2.32 123.59                                                            
C  1.34  2.32 161.62                                                            
C  5.37  0.00  9.51                                                             
C  5.37  0.00 47.54                                                             
C  5.37  0.00 85.56                                                             
C  5.37  0.00 123.59                                                            
C  5.37  0.00 161.62                                                            
C  1.34  6.97  9.51                                                             
C  1.34  6.97 47.54                                                             
C  1.34  6.97 85.56                                                             
C  1.34  6.97 123.59                                                            
C  1.34  6.97 161.62                                                            
C  5.37  4.65  9.51                                                             
C  5.37  4.65 47.54                                                             
C  5.37  4.65 85.56                                                             
C  5.37  4.65 123.59                                                            
C  5.37  4.65 161.62                                                            
C  9.39  2.32  9.51                                                             
C  9.39  2.32 47.54                                                             
C  9.39  2.32 85.56                                                             
C  9.39  2.32 123.59                                                            
C  9.39  2.32 161.62                                                            
C 13.42  0.00  9.51                                                             
C 13.42  0.00 47.54                                                             
C 13.42  0.00 85.56                                                             
C 13.42  0.00 123.59                                                            
C 13.42  0.00 161.62                                                            
C  1.34 11.62  9.51                                                             
C  1.34 11.62 47.54                                                             
C  1.34 11.62 85.56                                                             
C  1.34 11.62 123.59                                                            
C  1.34 11.62 161.62                                                            
C  5.37  9.30  9.51                                                             
C  5.37  9.30 47.54                                                             
C  5.37  9.30 85.56                                                             
C  5.37  9.30 123.59                                                            
C  5.37  9.30 161.62                                                            
C  9.39  6.97  9.51                                                             
C  9.39  6.97 47.54                                                             
C  9.39  6.97 85.56                                                             
C  9.39  6.97 123.59                                                            
C  9.39  6.97 161.62                                                            
C 13.42  4.65  9.51                                                             
C 13.42  4.65 47.54                                                             
C 13.42  4.65 85.56                                                             
C 13.42  4.65 123.59                                                            
C 13.42  4.65 161.62                                                            
C 17.45  2.32  9.51                                                             
C 17.45  2.32 47.54                                                             
C 17.45  2.32 85.56                                                             
C 17.45  2.32 123.59                                                            
C 17.45  2.32 161.62                                                            
C 21.47  0.00  9.51                                                             
C 21.47  0.00 47.54                                                             
C 21.47  0.00 85.56                                                             
C 21.47  0.00 123.59                                                            
C 21.47  0.00 161.62                                                            
C  1.34 16.27  9.51                                                             
C  1.34 16.27 47.54                                                             
C  1.34 16.27 85.56                                                             
C  1.34 16.27 123.59                                                            
C  1.34 16.27 161.62                                                            
C  5.37 13.95  9.51                                                             
C  5.37 13.95 47.54                                                             
C  5.37 13.95 85.56                                                             
C  5.37 13.95 123.59                                                            
C  5.37 13.95 161.62                                                            
C  9.39 11.62  9.51                                                             
C  9.39 11.62 47.54                                                             
C  9.39 11.62 85.56                                                             
C  9.39 11.62 123.59                                                            
C  9.39 11.62 161.62                                                            
C 13.42  9.30  9.51                                                             
C 13.42  9.30 47.54                                                             
C 13.42  9.30 85.56                                                             
C 13.42  9.30 123.59                                                            
C 13.42  9.30 161.62                                                            
C 17.45  6.97  9.51                                                             
C 17.45  6.97 47.54                                                             
C 17.45  6.97 85.56                                                             
C 17.45  6.97 123.59                                                            
C 17.45  6.97 161.62                                                            
C 21.47  4.65  9.51                                                             
C 21.47  4.65 47.54                                                             
C 21.47  4.65 85.56                                                             
C 21.47  4.65 123.59                                                            
C 21.47  4.65 161.62                                                            
C 25.50  2.32  9.51                                                             
C 25.50  2.32 47.54                                                             
C 25.50  2.32 85.56                                                             
C 25.50  2.32 123.59                                                            
C 25.50  2.32 161.62                                                            
C 29.52  0.00  9.51                                                             
C 29.52  0.00 47.54                                                             
C 29.52  0.00 85.56                                                             
C 29.52  0.00 123.59                                                            
C 29.52  0.00 161.62                                                            
C  9.39 16.27  9.51                                                             
C  9.39 16.27 47.54                                                             
C  9.39 16.27 85.56                                                             
C  9.39 16.27 123.59                                                            
C  9.39 16.27 161.62                                                            
C 13.42 13.95  9.51                                                             
C 13.42 13.95 47.54                                                             
C 13.42 13.95 85.56                                                             
C 13.42 13.95 123.59                                                            
C 13.42 13.95 161.62                                                            
C 17.45 11.62  9.51                                                             
C 17.45 11.62 47.54                                                             
C 17.45 11.62 85.56                                                             
C 17.45 11.62 123.59                                                            
C 17.45 11.62 161.62                                                            
C 21.47  9.30  9.51                                                             
C 21.47  9.30 47.54                                                             
C 21.47  9.30 85.56                                                             
C 21.47  9.30 123.59                                                            
C 21.47  9.30 161.62                                                            
C 25.50  6.97  9.51                                                             
C 25.50  6.97 47.54                                                             
C 25.50  6.97 85.56                                                             
C 25.50  6.97 123.59                                                            
C 25.50  6.97 161.62                                                            
C 29.52  4.65  9.51                                                             
C 29.52  4.65 47.54                                                             
C 29.52  4.65 85.56                                                             
C 29.52  4.65 123.59                                                            
C 29.52  4.65 161.62                                                            
C 17.45 16.27  9.51                                                             
C 17.45 16.27 47.54                                                             
C 17.45 16.27 85.56                                                             
C 17.45 16.27 123.59                                                            
C 17.45 16.27 161.62                                                            
C 21.47 13.95  9.51                                                             
C 21.47 13.95 47.54                                                             
C 21.47 13.95 85.56                                                             
C 21.47 13.95 123.59                                                            
C 21.47 13.95 161.62                                                            
C 25.50 11.62  9.51                                                             
C 25.50 11.62 47.54                                                             
C 25.50 11.62 85.56                                                             
C 25.50 11.62 123.59                                                            
C 25.50 11.62 161.62                                                            
C 29.52  9.30  9.51                                                             
C 29.52  9.30 47.54                                                             
C 29.52  9.30 85.56                                                             
C 29.52  9.30 123.59                                                            
C 29.52  9.30 161.62                                                            
C 25.50 16.27  9.51                                                             
C 25.50 16.27 47.54                                                             
C 25.50 16.27 85.56                                                             
C 25.50 16.27 123.59                                                            
C 25.50 16.27 161.62                                                            
C 29.52 13.95  9.51                                                             
C 29.52 13.95 47.54                                                             
C 29.52 13.95 85.56                                                             
C 29.52 13.95 123.59                                                            
C 29.52 13.95 161.62                                                            
C  2.68  0.00 28.52                                                             
C  2.68  0.00 66.55                                                             
C  2.68  0.00 104.58                                                            
C  2.68  0.00 142.61                                                            
C  2.68  0.00 180.63                                                            
C  2.68  4.65 28.52                                                             
C  2.68  4.65 66.55                                                             
C  2.68  4.65 104.58                                                            
C  2.68  4.65 142.61                                                            
C  2.68  4.65 180.63                                                            
C  6.71  2.32 28.52                                                             
C  6.71  2.32 66.55                                                             
C  6.71  2.32 104.58                                                            
C  6.71  2.32 142.61                                                            
C  6.71  2.32 180.63                                                            
C 10.74  0.00 28.52                                                             
C 10.74  0.00 66.55                                                             
C 10.74  0.00 104.58                                                            
C 10.74  0.00 142.61                                                            
C 10.74  0.00 180.63                                                            
C  2.68  9.30 28.52                                                             
C  2.68  9.30 66.55                                                             
C  2.68  9.30 104.58                                                            
C  2.68  9.30 142.61                                                            
C  2.68  9.30 180.63                                                            
C  6.71  6.97 28.52                                                             
C  6.71  6.97 66.55                                                             
C  6.71  6.97 104.58                                                            
C  6.71  6.97 142.61                                                            
C  6.71  6.97 180.63                                                            
C 10.74  4.65 28.52                                                             
C 10.74  4.65 66.55                                                             
C 10.74  4.65 104.58                                                            
C 10.74  4.65 142.61                                                            
C 10.74  4.65 180.63                                                            
C 14.76  2.32 28.52                                                             
C 14.76  2.32 66.55                                                             
C 14.76  2.32 104.58                                                            
C 14.76  2.32 142.61                                                            
C 14.76  2.32 180.63                                                            
C 18.79  0.00 28.52                                                             
C 18.79  0.00 66.55                                                             
C 18.79  0.00 104.58                                                            
C 18.79  0.00 142.61                                                            
C 18.79  0.00 180.63                                                            
C  2.68 13.95 28.52                                                             
C  2.68 13.95 66.55                                                             
C  2.68 13.95 104.58                                                            
C  2.68 13.95 142.61                                                            
C  2.68 13.95 180.63                                                            
C  6.71 11.62 28.52                                                             
C  6.71 11.62 66.55                                                             
C  6.71 11.62 104.58                                                            
C  6.71 11.62 142.61                                                            
C  6.71 11.62 180.63                                                            
C 10.74  9.30 28.52                                                             
C 10.74  9.30 66.55                                                             
C 10.74  9.30 104.58                                                            
C 10.74  9.30 142.61                                                            
C 10.74  9.30 180.63                                                            
C 14.76  6.97 28.52                                                             
C 14.76  6.97 66.55                                                             
C 14.76  6.97 104.58                                                            
C 14.76  6.97 142.61                                                            
C 14.76  6.97 180.63                                                            
C 18.79  4.65 28.52                                                             
C 18.79  4.65 66.55                                                             
C 18.79  4.65 104.58                                                            
C 18.79  4.65 142.61                                                            
C 18.79  4.65 180.63                                                            
C 22.81  2.32 28.52                                                             
C 22.81  2.32 66.55                                                             
C 22.81  2.32 104.58                                                            
C 22.81  2.32 142.61                                                            
C 22.81  2.32 180.63                                                            
C 26.84  0.00 28.52                                                             
C 26.84  0.00 66.55                                                             
C 26.84  0.00 104.58                                                            
C 26.84  0.00 142.61                                                            
C 26.84  0.00 180.63                                                            
C  6.71 16.27 28.52                                                             
C  6.71 16.27 66.55                                                             
C  6.71 16.27 104.58                                                            
C  6.71 16.27 142.61                                                            
C  6.71 16.27 180.63                                                            
C 10.74 13.95 28.52                                                             
C 10.74 13.95 66.55                                                             
C 10.74 13.95 104.58                                                            
C 10.74 13.95 142.61                                                            
C 10.74 13.95 180.63                                                            
C 14.76 11.62 28.52                                                             
C 14.76 11.62 66.55                                                             
C 14.76 11.62 104.58                                                            
C 14.76 11.62 142.61                                                            
C 14.76 11.62 180.63                                                            
C 18.79  9.30 28.52                                                             
C 18.79  9.30 66.55                                                             
C 18.79  9.30 104.58                                                            
C 18.79  9.30 142.61                                                            
C 18.79  9.30 180.63                                                            
C 22.81  6.97 28.52                                                             
C 22.81  6.97 66.55                                                             
C 22.81  6.97 104.58                                                            
C 22.81  6.97 142.61                                                            
C 22.81  6.97 180.63                                                            
C 26.84  4.65 28.52                                                             
C 26.84  4.65 66.55                                                             
C 26.84  4.65 104.58                                                            
C 26.84  4.65 142.61                                                            
C 26.84  4.65 180.63                                                            
C 30.86  2.32 28.52                                                             
C 30.86  2.32 66.55                                                             
C 30.86  2.32 104.58                                                            
C 30.86  2.32 142.61                                                            
C 30.86  2.32 180.63                                                            
C 14.76 16.27 28.52                                                             
C 14.76 16.27 66.55                                                             
C 14.76 16.27 104.58                                                            
C 14.76 16.27 142.61                                                            
C 14.76 16.27 180.63                                                            
C 18.79 13.95 28.52                                                             
C 18.79 13.95 66.55                                                             
C 18.79 13.95 104.58                                                            
C 18.79 13.95 142.61                                                            
C 18.79 13.95 180.63                                                            
C 22.81 11.62 28.52                                                             
C 22.81 11.62 66.55                                                             
C 22.81 11.62 104.58                                                            
C 22.81 11.62 142.61                                                            
C 22.81 11.62 180.63                                                            
C 26.84  9.30 28.52                                                             
C 26.84  9.30 66.55                                                             
C 26.84  9.30 104.58                                                            
C 26.84  9.30 142.61                                                            
C 26.84  9.30 180.63                                                            
C 30.86  6.97 28.52                                                             
C 30.86  6.97 66.55                                                             
C 30.86  6.97 104.58                                                            
C 30.86  6.97 142.61                                                            
C 30.86  6.97 180.63                                                            
C 22.81 16.27 28.52                                                             
C 22.81 16.27 66.55                                                             
C 22.81 16.27 104.58                                                            
C 22.81 16.27 142.61                                                            
C 22.81 16.27 180.63                                                            
C 26.84 13.95 28.52                                                             
C 26.84 13.95 66.55                                                             
C 26.84 13.95 104.58                                                            
C 26.84 13.95 142.61                                                            
C 26.84 13.95 180.63                                                            
C 30.86 11.62 28.52                                                             
C 30.86 11.62 66.55                                                             
C 30.86 11.62 104.58                                                            
C 30.86 11.62 142.61                                                            
C 30.86 11.62 180.63                                                            
C 30.86 16.27 28.52                                                             
C 30.86 16.27 66.55                                                             
C 30.86 16.27 104.58                                                            
C 30.86 16.27 142.61                                                            
C 30.86 16.27 180.63                                                            
%ENDBLOCK POSITIONS_ABS                                                         

--------------------------------------------------------------------------------
-------------------------------- END INPUT FILE --------------------------------
--------------------------------------------------------------------------------


 
<<<<<<<<<<<<<<<<<<<<<<<<<<<<<<<<< Full system >>>>>>>>>>>>>>>>>>>>>>>>>>>>>>>>>>
<<<<<<<<<<<<<<<<<<<<<<<<<<< PAW Dataset information >>>>>>>>>>>>>>>>>>>>>>>>>>>
File: ~/pp/paw/c_pbe_abinit.paw; rc = 1.25 bohr; shape type =  3; rshape = 1.25 bohr;
  Atomic number:  6;  ionic charge:  4.000000
    Partial Wave 1: l = 0
    Partial Wave 2: l = 0
    Partial Wave 3: l = 1
    Partial Wave 4: l = 1
  Core charge supplied for Nonlinear Core Corrections
<<<<<<<<<<<<<<<<<<<<<<<<<<<<<<<<<<<<<<< >>>>>>>>>>>>>>>>>>>>>>>>>>>>>>>>>>>>>>>

-------------------------- Atom counting information ---------------------------
Symbol    Natoms    Nngwfs    Nprojs
  C        640      2560      5120
.......   ......    ......    ......
Totals:    640      2560      5120
--------------------------------------------------------------------------------

=============================== PSINC grid sizes ===============================
                      Simulation cell:   63 x  35 x 375
                              FFT-box:   63 x  35 x 117
                                  PPD:    7 x   5 x   1
Grid space d1=  0.511269841270a0 (KE cutoff=  29.06054Eh = 790.77748eV)
Grid space d2=  0.531142857143a0 (KE cutoff=  26.92659Eh = 732.70972eV)
Grid space d3=  0.507040000000a0 (KE cutoff=  29.54742Eh = 804.02620eV)
================================================================================
  
WARNING in cell_grid_distribute:
Average of less than one 23-slab per node, so workload cannot be
equally balanced between nodes.

********************* Fourier parallelisation information **********************
       Coarse grid (whole simulation cell) dimensions:     63    35   375
          Real-space ('12') slabs/node (min max mean):      9    10     9
         Recip-space ('23') slabs/node (min max mean):      0     1     0
********************************************************************************

********************* Fourier parallelisation information **********************
       Double grid (whole simulation cell) dimensions:    126    70   750
          Real-space ('12') slabs/node (min max mean):     18    19    18
         Recip-space ('23') slabs/node (min max mean):      1     2     1
********************************************************************************

Atom SCF Calculation for C  : Z (AE atom) =   6 : Z (PS atom) =   4
Config String: 2s2 2p2
Orbitals (num,occ):  2     2.00 2.00
Orbitals   (num,l):  2        0    1
Real-space Grid (nr,dr,rmax): 1293    0.0069659443    9.0000000000
Spherical Bessel Basis (nsws,lmax,cutoff):   37    2  161.4736382572
Confining potential (l,width,scale):  0    3.0000000000  100.0000000000
Confining potential (l,width,scale):  1    3.0000000000  100.0000000000
  1         -5.4129360987   -1.2444937266    4.5135257941   -1.5420271367
  2         -5.3444202281   -1.3377187790    4.4131101426   -1.5071921700
  3         -5.3525226456   -1.3566567794    4.3924752240   -1.5004938544
  4         -5.3561013121   -1.3623552809    4.3862114699   -1.4986199617
  5         -5.3580093800   -1.3653574582    4.3828991843   -1.4976654093
  6         -5.3590276761   -1.3669475005    4.3811409016   -1.4971696795
  7         -5.3595688314   -1.3677934914    4.3802040659   -1.4969088858
  8         -5.3598556216   -1.3682449178    4.3797036984   -1.4967706290
  9         -5.3600074081   -1.3684862338    4.3794360452   -1.4966970063
 10         -5.3600877081   -1.3686153812    4.3792927313   -1.4966576988
 11         -5.3601301919   -1.3686845537    4.3792159394   -1.4966366788
 12         -5.3601526758   -1.3687216261    4.3791747687   -1.4966254262
 13         -5.3601645804   -1.3687415049    4.3791526850   -1.4966193980
 14         -5.3601708871   -1.3687521691    4.3791408341   -1.4966161667
 15         -5.3601742301   -1.3687578926    4.3791344719   -1.4966144337
 16         -5.3601760032   -1.3687609656    4.3791310549   -1.4966135039
 17         -5.3601769442   -1.3687626162    4.3791292190   -1.4966130048
 18         -5.3601774440   -1.3687635032    4.3791282322   -1.4966127369
 19         -5.3601777096   -1.3687639799    4.3791277016   -1.4966125929
 20         -5.3601778508   -1.3687642363    4.3791274162   -1.4966125155
 21         -5.3601779259   -1.3687643743    4.3791272626   -1.4966124740
Atom SCF converged after  21 iterations to a total energy of     -5.36017793

Determining parallel strategy ...
... using space-filling curve
... NGWF load balancing: max     64;  min     64;  average     64
... Projector load balancing: max    128;  min    128;  average    128
... done
Calculating Ewald energy ...
              Ewald: real-space energy =   12402.018640
        Ewald: reciprocal-space energy =     620.186779
         Ewald: (sum_charge)**2 Energy =    7845.285310
         Ewald: (sum_charge**2) Energy =     620.224262
                          Ewald Energy =    4556.695847
Basis initialisation ...... NGWF spheres initialised
... Projector spheres initialised
... NGWF tight boxes initialised
... Projector tight boxes initialised
... Tight-boxes gathered
... NGWF basis size (local,global):     692500  27887808
... PAW projector initialisation
... done

============================= Charge Augmentation ==============================
                           Aug box size:   11 x  11 x  11
================================================================================

========================== Sparse matrix information ===========================
                        Overlap matrix filling:   9.84%
                        Density kernel filling: 100.00%
              NGWF-Proj overlap matrix filling:   5.47%
                    Aug Overlap matrix filling:  10.00%
                    Hamiltonian matrix filling:  10.00%
                  NGWF diagonal matrix filling:   0.16%
                             KS matrix filling: 100.00% 
                           KSKS matrix filling: 100.00% 
================================================================================

Sparse matrix initialisation ... done
NGWF initialisation ...... done
============ Calculation of NGWF S^-1 using Hotelling algorithm ================ 
         Iteration  |  Frobenius norm and Maximum abs value    (of I-S*S_n^-1)   
               1       0.48712879E+02     0.97122614E+00
               2       0.47274665E+02     0.94454992E+00
               3       0.45214695E+02     0.89664354E+00
               4       0.42652568E+02     0.81801161E+00
               5       0.39643218E+02     0.71472331E+00
               6       0.36267907E+02     0.66317313E+00
               7       0.32912820E+02     0.61951582E+00
               8       0.29693754E+02     0.58200990E+00
               9       0.26047664E+02     0.53519513E+00
              10       0.21314493E+02     0.45854767E+00
              11       0.15217475E+02     0.34019701E+00
              12       0.85119469E+01     0.19316380E+00
              13       0.30932541E+01     0.67567521E-01
              14       0.48865959E+00     0.96847929E-02
              15       0.14486682E-01     0.24629683E-03
              16       0.16840164E-04     0.20773508E-06
              17       0.34903649E-10     0.26045832E-12
================================================================================
Calculating core density ...
================================= Core Density =================================
               Core den box size:   21 x  21 x  21
================================================================================
 ... done
Up spin density kernel initialisation ...... done

Writing density kernel to file "10.0618_GO_manual_4x64graphite.dkn" ... done

>>> Optimising kernel for current NGWFs:

--------------------------- Ensemble-DFT optimisation --------------------------
Running ScaLAPACK on   40 processor(s).

--------------------------------------------------------------------------------
  Iter                              Commutator    Free_energy(A=E-TS)     DeltaA
#    0                          0.000022718347   -3612.83139038569834  -3.61E+03

Step                       =       0.381966011250
Energy                     =   -3612.831366606783
Entropy (-TS)              =      -0.000023778796
Free energy (A=E-TS)       =   -3612.831390385698
Est. 0K Energy 0.5*(E+A)   =   -3612.831378496241
Residual Non-orthogonality =       0.000000000000
Residual N_electrons       =      -0.000000000120

Spin          Integrated_Ne            Fermi_level     Delta_Fermi_level
   1      2559.999999998977        -0.117056208204             -1.17E-01

                           Spin 1          
     Orb      H-eigenvalues     Occupancies
       1 |    -0.8399548322    1.0000000000 | 
                          ------
    1276 |    -0.1540294326    0.9999914982 | 
    1277 |    -0.1540290744    0.9999914972 | 
    1278 |    -0.1540286031    0.9999914959 | 
    1279 |    -0.1540268937    0.9999914914 | 
    1280 |    -0.1540254866    0.9999914876 | 
                 - Gap at zero temperature -
    1281 |    -0.0799494218    0.0000081507 | 
    1282 |    -0.0799487804    0.0000081491 | 
    1283 |    -0.0799482942    0.0000081478 | 
    1284 |    -0.0799465978    0.0000081434 | 
    1285 |    -0.0799449817    0.0000081393 | 
                          ------
    2560 |     0.7233464361    0.0000000000 | 

                       |  Abs_value |  Threshold | Converged
     Delta_Free_energy |   3.61E+03 |   1.00E-06 |        No
     Delta_Energy      |   3.61E+03 |   1.00E-04 |        No
     Delta_Entropy     |   2.38E-05 |   1.00E-04 |       Yes
     Commutator        |   2.27E-05 |   1.00E-05 |        No
     Delta_Fermi_level |   1.17E-01 |   1.00E-03 |        No

  Line search of the free energy minimum:
  Step_type        Step             Free_energy   Predicted_free_energy
.   Initial    0.000000    -3612.83139038569834
.    Trial1    0.381966    -3612.83203634904112
.    Trial2    0.618034    -3612.83211807821499
. Quadratic    0.579546    -3612.83212140976957    -3612.83212130182392

--------------------------------------------------------------------------------
  Iter                              Commutator    Free_energy(A=E-TS)     DeltaA
#    1                          0.000011935347   -3612.83212140976957  -7.31E-04

Step                       =       0.579545992492
Energy                     =   -3612.832095735796
Entropy (-TS)              =      -0.000025673831
Free energy (A=E-TS)       =   -3612.832121409770
Est. 0K Energy 0.5*(E+A)   =   -3612.832108572783
Residual Non-orthogonality =       0.000000000000
Residual N_electrons       =      -0.000000000143

Spin          Integrated_Ne            Fermi_level     Delta_Fermi_level
   1      2559.999999998909        -0.130974630223             -1.39E-02

                           Spin 1          
     Orb      H-eigenvalues     Occupancies
       1 |    -0.8545563124    1.0000000000 | 
                          ------
    1276 |    -0.1677516980    0.9999909549 | 
    1277 |    -0.1677503733    0.9999909511 | 
    1278 |    -0.1677500565    0.9999909502 | 
    1279 |    -0.1677486649    0.9999909462 | 
    1280 |    -0.1677486301    0.9999909461 | 
                 - Gap at zero temperature -
    1281 |    -0.0941972925    0.0000090443 | 
    1282 |    -0.0941959137    0.0000090404 | 
    1283 |    -0.0941956620    0.0000090397 | 
    1284 |    -0.0941942563    0.0000090356 | 
    1285 |    -0.0941937152    0.0000090341 | 
                          ------
    2560 |     0.7068009990    0.0000000000 | 

                       |  Abs_value |  Threshold | Converged
     Delta_Free_energy |   7.31E-04 |   1.00E-06 |        No
     Delta_Energy      |   7.29E-04 |   1.00E-04 |        No
     Delta_Entropy     |   1.90E-06 |   1.00E-04 |       Yes
     Commutator        |   1.19E-05 |   1.00E-05 |        No
     Delta_Fermi_level |   1.39E-02 |   1.00E-03 |        No

  Line search of the free energy minimum:
  Step_type        Step             Free_energy   Predicted_free_energy
.   Initial    0.000000    -3612.83212140976957
.    Trial1    0.579546    -3612.83221405148879
.    Trial2    0.740145    -3612.83207337607882
. Quadratic    0.346886    -3612.83228952314630    -3612.83228980468584

--------------------------------------------------------------------------------
  Iter                              Commutator    Free_energy(A=E-TS)     DeltaA
#    2                          0.000005908076   -3612.83228952314630  -1.68E-04

Step                       =       0.346885660759
Energy                     =   -3612.832263350595
Entropy (-TS)              =      -0.000026172539
Free energy (A=E-TS)       =   -3612.832289523146
Est. 0K Energy 0.5*(E+A)   =   -3612.832276436870
Residual Non-orthogonality =       0.000000000000
Residual N_electrons       =      -0.000000000012

Spin          Integrated_Ne            Fermi_level     Delta_Fermi_level
   1      2559.999999999913        -0.134481481383             -3.51E-03

                           Spin 1          
     Orb      H-eigenvalues     Occupancies
       1 |    -0.8582402864    1.0000000000 | 
                          ------
    1276 |    -0.1711658015    0.9999906861 | 
    1277 |    -0.1711643382    0.9999906818 | 
    1278 |    -0.1711639886    0.9999906808 | 
    1279 |    -0.1711629294    0.9999906776 | 
    1280 |    -0.1711628212    0.9999906773 | 
                 - Gap at zero temperature -
    1281 |    -0.0977424741    0.0000091544 | 
    1282 |    -0.0977408677    0.0000091498 | 
    1283 |    -0.0977406704    0.0000091492 | 
    1284 |    -0.0977395315    0.0000091459 | 
    1285 |    -0.0977389700    0.0000091443 | 
                          ------
    2560 |     0.7026230948    0.0000000000 | 

                       |  Abs_value |  Threshold | Converged
     Delta_Free_energy |   1.68E-04 |   1.00E-06 |        No
     Delta_Energy      |   1.68E-04 |   1.00E-04 |        No
     Delta_Entropy     |   4.99E-07 |   1.00E-04 |       Yes
     Commutator        |   5.91E-06 |   1.00E-05 |       Yes
     Delta_Fermi_level |   3.51E-03 |   1.00E-03 |        No

  Line search of the free energy minimum:
  Step_type        Step             Free_energy   Predicted_free_energy
.   Initial    0.000000    -3612.83228952314630
.    Trial1    0.346886    -3612.83233205235865
.    Trial2    0.596353    -3612.83233092821638
. Quadratic    0.461049    -3612.83233483586719    -3612.83233483030745

--------------------------------------------------------------------------------
  Iter                              Commutator    Free_energy(A=E-TS)     DeltaA
#    3                          0.000003594842   -3612.83233483586719  -4.53E-05

Step                       =       0.461048692132
Energy                     =   -3612.832308231131
Entropy (-TS)              =      -0.000026604983
Free energy (A=E-TS)       =   -3612.832334835867
Est. 0K Energy 0.5*(E+A)   =   -3612.832321533499
Residual Non-orthogonality =       0.000000000000
Residual N_electrons       =       0.000000000246

Spin          Integrated_Ne            Fermi_level     Delta_Fermi_level
   1      2560.000000001788        -0.137530471135             -3.05E-03

                           Spin 1          
     Orb      H-eigenvalues     Occupancies
       1 |    -0.8614338195    1.0000000000 | 
                          ------
    1276 |    -0.1741581191    0.9999905179 | 
    1277 |    -0.1741565439    0.9999905132 | 
    1278 |    -0.1741561648    0.9999905121 | 
    1279 |    -0.1741553864    0.9999905097 | 
    1280 |    -0.1741552299    0.9999905093 | 
                 - Gap at zero temperature -
    1281 |    -0.1008469422    0.0000093162 | 
    1282 |    -0.1008451460    0.0000093110 | 
    1283 |    -0.1008449971    0.0000093105 | 
    1284 |    -0.1008440966    0.0000093079 | 
    1285 |    -0.1008435023    0.0000093061 | 
                          ------
    2560 |     0.6990029726    0.0000000000 | 

                       |  Abs_value |  Threshold | Converged
     Delta_Free_energy |   4.53E-05 |   1.00E-06 |        No
     Delta_Energy      |   4.49E-05 |   1.00E-04 |       Yes
     Delta_Entropy     |   4.32E-07 |   1.00E-04 |       Yes
     Commutator        |   3.59E-06 |   1.00E-05 |       Yes
     Delta_Fermi_level |   3.05E-03 |   1.00E-03 |        No

  Line search of the free energy minimum:
  Step_type        Step             Free_energy   Predicted_free_energy
.   Initial    0.000000    -3612.83233483586719
.    Trial1    0.461049    -3612.83234874827713
.    Trial2    0.666910    -3612.83233730295615
. Quadratic    0.347836    -3612.83235039308647    -3612.83235039670535

--------------------------------------------------------------------------------
  Iter                              Commutator    Free_energy(A=E-TS)     DeltaA
#    4                          0.000002033668   -3612.83235039308647  -1.56E-05

Step                       =       0.347836407878
Energy                     =   -3612.832323610568
Entropy (-TS)              =      -0.000026782286
Free energy (A=E-TS)       =   -3612.832350393086
Est. 0K Energy 0.5*(E+A)   =   -3612.832337001827
[...]
 C   160 -- C   385       -0.10      5.37000
 C   159 -- C   384       -0.10      5.37000
 C   158 -- C   383       -0.10      5.37000
 C   157 -- C   382       -0.10      5.37000
 C   156 -- C   381       -0.10      5.37000
 C   155 -- C   355       -0.10      5.37000
 C   154 -- C   354       -0.10      5.37000
 C   153 -- C   353       -0.10      5.37000
 C   152 -- C   352       -0.10      5.37000
 C   151 -- C   351       -0.10      5.37000
 C   140 -- C   335       -0.10      5.37000
 C   139 -- C   334       -0.10      5.37000
 C   138 -- C   333       -0.10      5.37000
 C   137 -- C   332       -0.10      5.37000
 C   136 -- C   331       -0.10      5.37000
 C   115 -- C   325       -0.10      5.37000
 C   114 -- C   324       -0.10      5.37000
 C   113 -- C   323       -0.10      5.37000
 C   112 -- C   322       -0.10      5.37000
 C   111 -- C   321       -0.10      5.37000
 C   219 -- C   569       -0.10      5.37202
 C   218 -- C   568       -0.10      5.37202
 C   217 -- C   567       -0.10      5.37202
 C   216 -- C   566       -0.10      5.37202
 C   250 -- C   540       -0.10      5.37202
 C   249 -- C   539       -0.10      5.37202
 C   248 -- C   538       -0.10      5.37202
 C   247 -- C   537       -0.10      5.37202
 C   246 -- C   536       -0.10      5.37202
 C   220 -- C   570       -0.10      5.37202
 C   285 -- C   580       -0.10      5.37202
 C   284 -- C   579       -0.10      5.37202
 C   283 -- C   578       -0.10      5.37202
 C   282 -- C   577       -0.10      5.37202
 C   281 -- C   576       -0.10      5.37202
 C   260 -- C   605       -0.10      5.37202
 C   259 -- C   604       -0.10      5.37202
 C   258 -- C   603       -0.10      5.37202
 C   257 -- C   602       -0.10      5.37202
 C   256 -- C   601       -0.10      5.37202
 C   220 -- C   515       -0.10      5.37202
 C   219 -- C   514       -0.10      5.37202
 C   218 -- C   513       -0.10      5.37202
 C   217 -- C   512       -0.10      5.37202
 C   216 -- C   511       -0.10      5.37202
 C   195 -- C   540       -0.10      5.37202
 C   195 -- C   500       -0.10      5.37202
 C   194 -- C   539       -0.10      5.37202
 C   194 -- C   499       -0.10      5.37202
 C   193 -- C   538       -0.10      5.37202
 C   193 -- C   498       -0.10      5.37202
 C   192 -- C   537       -0.10      5.37202
 C   192 -- C   497       -0.10      5.37202
 C   191 -- C   536       -0.10      5.37202
 C   191 -- C   496       -0.10      5.37202
 C   180 -- C   515       -0.10      5.37202
 C   179 -- C   514       -0.10      5.37202
 C   178 -- C   513       -0.10      5.37202
 C   177 -- C   512       -0.10      5.37202
 C   176 -- C   511       -0.10      5.37202
 C    11 -- C   331       -0.10      5.37202
 C   205 -- C   550       -0.10      5.37202
 C   204 -- C   549       -0.10      5.37202
 C   203 -- C   548       -0.10      5.37202
 C   202 -- C   547       -0.10      5.37202
 C   201 -- C   546       -0.10      5.37202
 C    95 -- C   425       -0.10      5.37202
 C    95 -- C   365       -0.10      5.37202
 C    94 -- C   424       -0.10      5.37202
 C    94 -- C   364       -0.10      5.37202
 C    93 -- C   423       -0.10      5.37202
 C    93 -- C   363       -0.10      5.37202
 C    92 -- C   422       -0.10      5.37202
 C    92 -- C   362       -0.10      5.37202
 C    91 -- C   421       -0.10      5.37202
 C    91 -- C   361       -0.10      5.37202
 C    40 -- C   365       -0.10      5.37202
 C    39 -- C   364       -0.10      5.37202
 C    38 -- C   363       -0.10      5.37202
 C    37 -- C   362       -0.10      5.37202
 C    36 -- C   361       -0.10      5.37202
 C    15 -- C   335       -0.10      5.37202
 C    65 -- C   395       -0.10      5.37202
 C    65 -- C   345       -0.10      5.37202
 C    64 -- C   394       -0.10      5.37202
 C    64 -- C   344       -0.10      5.37202
 C    63 -- C   393       -0.10      5.37202
 C    30 -- C   355       -0.10      5.37202
 C    63 -- C   343       -0.10      5.37202
 C    62 -- C   392       -0.10      5.37202
 C    30 -- C   325       -0.10      5.37202
 C    14 -- C   334       -0.10      5.37202
 C    62 -- C   342       -0.10      5.37202
 C    61 -- C   391       -0.10      5.37202
 C    29 -- C   354       -0.10      5.37202
 C    61 -- C   341       -0.10      5.37202
 C    29 -- C   324       -0.10      5.37202
 C   260 -- C   550       -0.10      5.37202
 C   259 -- C   549       -0.10      5.37202
 C    28 -- C   353       -0.10      5.37202
 C   258 -- C   548       -0.10      5.37202
 C   257 -- C   547       -0.10      5.37202
 C   256 -- C   546       -0.10      5.37202
 C    28 -- C   323       -0.10      5.37202
 C    27 -- C   352       -0.10      5.37202
 C    13 -- C   333       -0.10      5.37202
 C    27 -- C   322       -0.10      5.37202
 C   120 -- C   395       -0.10      5.37202
 C    26 -- C   351       -0.10      5.37202
 C   119 -- C   394       -0.10      5.37202
 C   118 -- C   393       -0.10      5.37202
 C    55 -- C   335       -0.10      5.37202
 C   117 -- C   392       -0.10      5.37202
 C    26 -- C   321       -0.10      5.37202
 C   116 -- C   391       -0.10      5.37202
 C    54 -- C   334       -0.10      5.37202
 C    12 -- C   332       -0.10      5.37202
 C    53 -- C   333       -0.10      5.37202
 C   230 -- C   580       -0.10      5.37202
 C   230 -- C   525       -0.10      5.37202
 C   229 -- C   579       -0.10      5.37202
 C   229 -- C   524       -0.10      5.37202
 C   228 -- C   578       -0.10      5.37202
 C    52 -- C   332       -0.10      5.37202
 C   228 -- C   523       -0.10      5.37202
 C   227 -- C   577       -0.10      5.37202
 C   227 -- C   522       -0.10      5.37202
 C   226 -- C   576       -0.10      5.37202
 C   226 -- C   521       -0.10      5.37202
 C    51 -- C   331       -0.10      5.37202
 C    23 -- C   478       -0.10      5.37202
 C    49 -- C   469       -0.10      5.37202
 C    48 -- C   468       -0.10      5.37202
 C    47 -- C   467       -0.10      5.37202
 C    22 -- C   477       -0.10      5.37202
 C    46 -- C   466       -0.10      5.37202
 C    21 -- C   476       -0.10      5.37202
 C    85 -- C   355       -0.10      5.37202
 C    84 -- C   354       -0.10      5.37202
 C    83 -- C   353       -0.10      5.37202
 C    82 -- C   352       -0.10      5.37202
 C    81 -- C   351       -0.10      5.37202
 C    55 -- C   385       -0.10      5.37202
 C    54 -- C   384       -0.10      5.37202
 C    25 -- C   480       -0.10      5.37202
 C    53 -- C   383       -0.10      5.37202
 C    52 -- C   382       -0.10      5.37202
 C    51 -- C   381       -0.10      5.37202
 C    24 -- C   479       -0.10      5.37202
 C    50 -- C   470       -0.10      5.37202
 C    24 -- C   449       -0.10      5.37202
 C     6 -- C   416       -0.10      5.37202
 C    23 -- C   448       -0.10      5.37202
 C    22 -- C   447       -0.10      5.37202
 C    10 -- C   470       -0.10      5.37202
 C     5 -- C   450       -0.10      5.37202
 C    21 -- C   446       -0.10      5.37202
 C    10 -- C   420       -0.10      5.37202
 C     9 -- C   469       -0.10      5.37202
 C     9 -- C   419       -0.10      5.37202
 C     8 -- C   468       -0.10      5.37202
 C     4 -- C   449       -0.10      5.37202
 C   150 -- C   440       -0.10      5.37202
 C   149 -- C   439       -0.10      5.37202
 C   148 -- C   438       -0.10      5.37202
 C   147 -- C   437       -0.10      5.37202
 C     8 -- C   418       -0.10      5.37202
 C   146 -- C   436       -0.10      5.37202
 C     2 -- C   447       -0.10      5.37202
 C   135 -- C   460       -0.10      5.37202
 C     7 -- C   467       -0.10      5.37202
 C   134 -- C   459       -0.10      5.37202
 C   133 -- C   458       -0.10      5.37202
 C   132 -- C   457       -0.10      5.37202
 C   131 -- C   456       -0.10      5.37202
 C     7 -- C   417       -0.10      5.37202
 C     1 -- C   446       -0.10      5.37202
 C     6 -- C   466       -0.10      5.37202
 C    25 -- C   450       -0.10      5.37202
 C     3 -- C   448       -0.10      5.37202
 C   106 -- C   436       -0.10      5.37202
 C   106 -- C   376       -0.10      5.37202
 C    80 -- C   410       -0.10      5.37202
 C    79 -- C   409       -0.10      5.37202
 C    78 -- C   408       -0.10      5.37202
 C    77 -- C   407       -0.10      5.37202
 C    76 -- C   406       -0.10      5.37202
 C   135 -- C   410       -0.10      5.37202
 C   134 -- C   409       -0.10      5.37202
 C   133 -- C   408       -0.10      5.37202
 C   132 -- C   407       -0.10      5.37202
 C   131 -- C   406       -0.10      5.37202
 C   110 -- C   440       -0.10      5.37202
 C   110 -- C   380       -0.10      5.37202
 C   109 -- C   439       -0.10      5.37202
 C   109 -- C   379       -0.10      5.37202
 C   108 -- C   438       -0.10      5.37202
 C   108 -- C   378       -0.10      5.37202
 C   107 -- C   437       -0.10      5.37202
 C   107 -- C   377       -0.10      5.37202
 C   215 -- C   635       -0.10      5.38000
 C   214 -- C   634       -0.10      5.38000
 C   213 -- C   633       -0.10      5.38000
 C   212 -- C   632       -0.10      5.38000
 C   211 -- C   631       -0.10      5.38000
 C   190 -- C   620       -0.10      5.38000
 C   189 -- C   619       -0.10      5.38000
 C   188 -- C   618       -0.10      5.38000
 C   187 -- C   617       -0.10      5.38000
 C   186 -- C   616       -0.10      5.38000
 C   175 -- C   595       -0.10      5.38000
 C   174 -- C   594       -0.10      5.38000
 C   173 -- C   593       -0.10      5.38000
 C   172 -- C   592       -0.10      5.38000
 C   171 -- C   591       -0.10      5.38000
 C   245 -- C   640       -0.10      5.38000
 C   244 -- C   639       -0.10      5.38000
 C   243 -- C   638       -0.10      5.38000
 C   242 -- C   637       -0.10      5.38000
 C   241 -- C   636       -0.10      5.38000
==================================================


=================== Orbital energy and occupancy information ===================

      Total number of orbitals:    2560
        Occupancy sum (kernel):    1280.000000000
   Occupancy sum (eigenvalues):    1280.000000000
                 HOMO-LUMO gap:       0.072448620 Eh
                 Mid-gap level:      -0.018906126 Eh

                        Orbital | Energy (Eh) | Occupancy
                            1    -0.733401995   1.0000000
                        .......   ...........   .........
                         1271    -0.055472449   0.9999903
                         1272    -0.055471111   0.9999903
                         1273    -0.055469701   0.9999903
                         1274    -0.055467426   0.9999903
                         1275    -0.055466278   0.9999903
                         1276    -0.055136464   0.9999892
                         1277    -0.055135285   0.9999892
                         1278    -0.055134160   0.9999892
                         1279    -0.055131685   0.9999892
                         1280    -0.055130436   0.9999892
                        ....... -- gap at 0K -- .........
                         1281     0.017318184   0.0000106
                         1282     0.017319240   0.0000106
                         1283     0.017320177   0.0000106
                         1284     0.017322657   0.0000106
                         1285     0.017323886   0.0000106
                         1286     0.017561630   0.0000099
                         1287     0.017562743   0.0000098
                         1288     0.017563679   0.0000098
                         1289     0.017566200   0.0000098
                         1290     0.017567429   0.0000098
                        .......   ...........   .........
                         2560     0.885396932   0.0000000

================================================================================

===================== Writing canonical molecular orbitals =====================
| Orbital  Energy (eV)  Norm     |
| HOMO     -1.50017550  1.000000 | Writing "10.0618_GO_manual_4x64graphite_HOMO.cube" ... done
Writing "10.0618_GO_manual_4x64graphite_HOMO.dx" ... done
| LUMO      0.47125178  1.000000 | Writing "10.0618_GO_manual_4x64graphite_LUMO.cube" ... done
Writing "10.0618_GO_manual_4x64graphite_LUMO.dx" ... done
================================================================================
 
===================== Density of States (DOS) calculation ======================
Writing "10.0618_GO_manual_4x64graphite_DOS.txt" ...  done
================================================================================
 
Writing bands to file "10.0618_GO_manual_4x64graphite.val_bands" ... done
 
================ Projected Density of States (pDOS) calculation ================
 
Constructing AM resolved functions  ...... done
Writing NGWF plot files in formats: CUBE DX ...  done
 
Performing overlap integrals ...  done
 
Computing pDOS weights ...  done
 
All bands spilling parameter =   2.54 %
Occupancy-weighted spilling parameter =   1.01 %
 
 => Outputting data for OptaDOS <=
 
Writing pDOS weights to file "10.0618_GO_manual_4x64graphite.val_pdos_bin" ... done
 
Writing band gradients to file "10.0618_GO_manual_4x64graphite.val_dome_bin" ... done
 
Writing Castep output cell file to "10.0618_GO_manual_4x64graphite-out.cell" ... done
 
 => Computing Gaussian smeared pDOS <= 
Writing "10.0618_GO_manual_4x64graphite_PDOS.txt" ...  done
 
 => Computing Occupancy-weighted Gaussian smeared pDOS <= 
Writing "10.0618_GO_manual_4x64graphite_occ_PDOS.txt" ...  done
  => Band centres: 
 S band centre of group 1:  -14.545617 eV
 P band centre of group 1:   -7.466025 eV
  Band centres done. <=
  => Integrated number of electrons in each AM band: 
 S num electrons of group 1:  571.416320
 P num electrons of group 1: 1962.800669
  Integrated number of electrons done. <=
================================================================================

------------------------------ TIMING INFORMATION ------------------------------
AVERAGE TIME:    1683.705s on     40 node(s)                                    
TOTAL TIME:      1683.705s on     40 node(s)                                    
================= AVERAGE TIMINGS FROM ALL NODES (CUMULATIVE) ==================
|| TAG                                    #calls    cpu time   %total  Gflops ||
|| work_imbalance                       :     1        0.00s   0.000%  ------ ||
|| sparse_set_to_garbage                :   123        0.01s   0.000%  ------ ||
|| paw_tcore_density                    :     1        0.01s   0.000%  ------ ||
|| paw_tcore_hartree_on_grid            :     1        0.01s   0.001%  ------ ||
|| paw_sphere_density_on_grid           :     1        0.01s   0.001%  ------ ||
|| paw_dij_hartree                      :   236        0.03s   0.002%  ------ ||
|| basis_extract_function_from_box      :  1408        0.06s   0.004%  ------ ||
|| paw_species_calc_proj_prec_mat       :     1        0.12s   0.007%  ------ ||
|| pseudo_make_structure_factor         :     1        0.15s   0.009%  ------ ||
|| density_init_guess_real              :     1        0.17s   0.010%  ------ ||
|| paw_dataset_init                     :     1        0.19s   0.011%  ------ ||
|| restart_kernel_write                 :    12        0.48s   0.029%  ------ ||
|| sparse_init                          :     1        0.63s   0.038%  ------ ||
|| dense_normal_eigensolve              :     1        0.66s   0.039%  ------ ||
|| ngwfs_initialise_from_radial         :     2        0.67s   0.040%  ------ ||
|| projectors_init_fftbox_recip         :   111        2.23s   0.132%  ------ ||
|| hartree_on_grid                      :   178        3.00s   0.178%  ------ ||
|| fourier_apply_box_pair               :  2080        3.45s   0.205% 559.912 ||
|| basis_copy_function_to_box           : 17088        3.67s   0.218%  ------ ||
|| augmentation_screen_dij              :   183        3.87s   0.230%  ------ ||
|| sparse_trace                         :  2128        4.79s   0.285%  ------ ||
|| sparse_embed_hotelling_invert_embed  :    21        5.10s   0.303%  ------ ||
|| ngwf_gradient_coeffs                 :    11        5.60s   0.332%  ------ ||
|| sw_init                              :     1        6.73s   0.400%  ------ ||
|| cell_grid_deposit_box_real           : 22960       10.95s   0.650%  ------ ||
|| function_ops_brappd_ketppd           :    44       12.76s   0.758%  ------ ||
|| integrals_kinetic                    :    21       16.88s   1.003%  ------ ||
|| paw_dij_xc                           :   236       18.76s   1.114%  ------ ||
|| density_fftbox_deposit_to_cell       : 11392       20.47s   1.216%  ------ ||
|| aug_nonlocal_mat                     :   225       21.02s   1.249%  ------ ||
|| ewald_calculate_energy               :     1       22.10s   1.312%  ------ ||
|| hamiltonian_energy_components        :     3       23.34s   1.386%  ------ ||
|| projectors_func_ovlp_box             :    22       23.47s   1.394%  ------ ||
|| augmentation_density_on_grid         :   178       23.73s   1.409%  ------ ||
|| cell_grid_extract_box_real           :  7228       26.93s   1.599%  ------ ||
|| fourier_apply_cell_forward           :  5134       27.00s   1.603%  72.037 ||
|| fourier_apply_cell_backward          :  5489       28.82s   1.712%  72.150 ||
|| basis_dot_function_with_box          : 1.467M      41.00s   2.435%  ------ ||
|| integrals_locpot_mat_els_batch       :   224       43.25s   2.569%  ------ ||
|| eigenstates_pdos                     :     1       48.95s   2.907%  ------ ||
|| eigenstates_calculate                :     1       56.01s   3.326%  ------ ||
|| sparse_product                       :  2194       60.07s   3.568%  ------ ||
|| dense_eigensolve                     :   153       61.64s   3.661%  ------ ||
|| potential_apply_to_ngwf_batch        :   224       84.02s   4.990%  ------ ||
|| projectors_gradient_batch            :    44       88.42s   5.252%  ------ ||
|| basis_add_function_to_box            : 3.580M     100.01s   5.940%  ------ ||
|| xc_energy_potential                  :   177      103.77s   6.163%  ------ ||
|| restart_ngwfs_tightbox_output        :    10      114.01s   6.772%  ------ ||
|| density_batch_row_sums               :   712      119.27s   7.084%  ------ ||
|| integrals_locpot_dbl_grid            :    56      127.63s   7.580%  ------ ||
|| projectors_grad_precond_batch        :    44      132.40s   7.864%  ------ ||
|| nlxc_vdw_energy                      :   354      136.07s   8.081%  ------ ||
|| properties_calculate                 :     1      141.15s   8.383%  ------ ||
|| edft_diag_ngwf_ham                   :   152      154.54s   9.179%  ------ ||
|| fourier_apply_box                    : 54112      168.04s   9.980% 973.616 ||
|| density_fftbox_interpolate_multiply  : 11392      220.68s  13.107%  ------ ||
|| ngwf_gradient_build_batch            :    44      253.92s  15.081%  ------ ||
|| density_batch_interp_deposit         :   712      262.99s  15.620%  ------ ||
|| ngwf_gradient_batch                  :    44      297.93s  17.695%  ------ ||
|| edft_apply_smearing_operator         :   152      309.05s  18.356%  ------ ||
|| ngwf_gradient_lnv                    :    11      311.06s  18.475%  ------ ||
|| density_on_dbl_grid                  :   178      391.47s  23.250%  ------ ||
|| hamiltonian_lhxc_calculate           :   173      515.13s  30.595%  ------ ||
|| edft_calculate                       :    11      955.14s  56.729%  ------ ||
|| ngwf_cg_optimise                     :     1     1510.36s  89.705%  ------ ||
|| total_time                           :     1     1683.71s 100.000%  ------ ||
================================================================================
Overhead of generating timer report: 
- 0 ms averaging over threads,
- 6 ms ensuring consistency across MPI ranks,
- 0 ms printing in order.

Job completed: 10-03-2020 14:07 (-0000)

