 +---------------------------------------------------------------+
 |                                                               |
 |        ####### #     # ####### ####### ####### ######         |
 |        #     # ##    # #          #    #       #     #        |
 |        #     # # #   # #          #    #       #     #        |
 |        #     # #  #  # #####      #    #####   ######         |
 |        #     # #   # # #          #    #       #              |
 |        #     # #    ## #          #    #       #              |
 |        ####### #     # #######    #    ####### #              |
 |                                                               |
 |        Linear-Scaling Ab Initio Total Energy Program          |
 |                                                               |
 |          Release for academic collaborators of ODG            |
 |                                             Version 5.3.2.12  |
 |                                                               |
 +---------------------------------------------------------------+
 |                                                               |
 |  Authors:                                                     |
 |  Jacek Dziedzic, Peter D. Haynes, Nicholas D. M. Hine,        |
 |  Arash. A. Mostofi, Mike C. Payne and Chris-Kriton Skylaris   |
 |                                                               |
 |  Contributors:                                                |
 |  J. Aarons, L. Andrinopoulos, P. W. Avraam, R. A. Bell,       |
 |  A. Bhandari, G. A. Bramley, R. J. Charlton, S. J. Clark,     |
 |  R. J. Clements, G. C. Constantinescu, F. Corsetti,           |
 |  N. Corsini, O. Dieguez, S. M. M. Dubois, K. K. B. Duff,      |
 |  J. M. Escartin, A. Greco, H. Helal, Q. O. Hill, L. P. Lee,   |
 |  J.-H. Li, E. B. Linscott, G. Moynihan, D. D. O`Regan,        |
 |  O. K. Okan, M. J. S. Phipps, C. J. Pickard,                  |
 |  J. C. A. Prentice, M. I. J. Probert, L. E. Ratcliff,         |
 |  M. Robinson, A. Ruiz Serrano, J. S. Spencer, E. W. Tait,     |
 |  G. Teobaldi, D. Turban, V. Vitale, K. A. Wilkinson,          |
 |  C. Weber, J. C. Womack, N. Yeung and T. J. Zuehlsdorff       |
 |                                                               |
 |                                   Copyright (c) 2004-2020     |
 |                                                               |
 |  Please cite:                                                 |
 |  "Introducing ONETEP: Linear-scaling density functional       |
 |   simulations on parallel computers".                         |
 |   C.-K. Skylaris, P. D. Haynes, A. A. Mostofi, M. C. Payne.   |
 |   J. Chem. Phys. 122 084119 (2005).                           |
 |                                                               |
 |          in all publications arising from your use of ONETEP. |
 |                                                               |
 +---------------------------------------------------------------+
 |                                                               |
 |   ONETEP is based on developments described in the following  |
 |   publications:                                               |
 |                                                               |
 |  "Nonorthogonal generalized Wannier function pseudopotential  |
 |   plane-wave method".                                         |
 |   C.-K. Skylaris, A. A. Mostofi, P. D. Haynes, O. Dieguez,    |
 |   M. C. Payne.                                                |
 |   Phys. Rev. B 66 035119 (2002).                              |
 |                                                               |
 |  "Preconditioned iterative minimization for linear-scaling    |
 |   electronic structure calculations".                         |
 |   A. A. Mostofi, P. D. Haynes, C.-K. Skylaris, M. C. Payne.   |
 |   J. Chem. Phys. 119(17), pp.8842-8848 (2003).                |
 |                                                               |
 |  "Total-energy calculations on a real space grid with         |
 |   localized functions and a plane-wave basis".                |
 |   A. A. Mostofi, C.-K. Skylaris, P. D. Haynes, M. C. Payne.   |
 |   Comput. Phys. Commun. 147, pp.788-802 (2002).               |
 |                                                               |
 |  "Accurate kinetic energy evaluation in electronic structure  |
 |   calculations with localized functions on real space grids"  |
 |   C.-K. Skylaris, A. A. Mostofi, P. D. Haynes, C. J. Pickard, |
 |   M. C. Payne.                                                |
 |   Comput. Phys. Commun. 140, pp.315-322 (2001).               |
 |                                                               |
 |  "Accurate ionic forces and geometry optimization in linear-  |
 |   scaling density-functional theory with local orbitals"      |
 |   N. D. M. Hine, M. Robinson, P. D. Haynes, C.-K. Skylaris,   |
 |   M. C. Payne, and A. A. Mostofi.                             |
 |   Phys. Rev. B 83 195102 (2011).                              |
 |                                                               |
 +---------------------------------------------------------------+

Job started: 25-02-2020 23:35 (-0000)
 
Reading parameters from file "3.21716088_GO_manual_4x64graphite.dat" ...

WARNING: "cutoff_energy" not specified, but "psinc_spacing" specified.
         Using the latter to set the KE cutoff energy to  732.32021eV,
         thus *overriding* the default.

... done

If your calculation crashes here, before "Checking processes and threads..."
is displayed, then your stack size is insufficient.
If so, use "ulimit -s unlimited" at runtime.
You can disable this check with "check_stack_size F".

Checking processes and threads...
   Determining the default number of threads...
      No default threads set at compilation time: defaulting to 1.
      OpenMP library call suggests 4 threads.
      Hybrid MPI-OpenMP compilation detected.
      Number of MPI processes > 1.
      OMP_NUM_THREADS environment variable present and
      its value matches the one obtained from the OpenMP library call.
      Using this value as default.
      Default threads: 4
      Default applies to threads_max and threads_num_fftboxes.
      Settings in the input file override this default.
   ... done

   Running with 40 MPI processes.
   There are 10 MPI processes running on the same node as the root process.
   Each MPI process is using: 
               1 threads for simulation cell FFTs.
               1 threads for parallel FFT box operations.
               4 threads for loops over batched FFT box operations.
               4 threads in other parallel regions.
... done

Basic input checks...
Resetting ngwf_cg_rotate to TRUE for EDFT calculations
... done

Reading geometry and species blocks from file "3.21716088_GO_manual_4x64graphite.dat" ...
    
  PSINC grid spacing along a1 set to   0.511215680000a0 from input file.
  PSINC grid spacing along a2 set to   0.531284090000a0 from input file.
  PSINC grid spacing along a3 set to   0.506630450000a0 from input file.
  Number of PPD points along a3 set to 1.  This is 
  the default value, it may have been provided also in the input file.
... done
 Writing xyz coordinates to file "3.21716088_GO_manual_4x64graphite.xyz" ... done


--------------------------------------------------------------------------------
---------------------------------- INPUT FILE ----------------------------------
--------------------------------------------------------------------------------

task : singlepoint                                                              
do_properties : true                                                            
dx_format T                                                                     
edft T                                                                          
output_detail VERBOSE                                                           
write_xyz T                                                                     
xc_functional VDWDF                                                             
PSINC_SPACING 0.51121568 0.53128409 0.50663045                                  
paw T                                                                           
pdos_max_l = 2                                                                  
dos_smear  0.1 eV                                                               
popn_calculate T                                                                
PDOS_PSEUDOATOMIC T                                                             
PDOS_REDUCE_SWS F                                                               
PDOS_CONSTRUCT_BASIS F                                                          
PDOS_LOWDIN T                                                                   
PDOS_ORTH_ATOM_BLOCKS F                                                         
PDOS_LCAO_OPTIMIZE F                                                            
pdos_optados_output T                                                           
homo_plot 0                                                                     
lumo_plot 0                                                                     
homo_dens_plot -1                                                               
lumo_dens_plot -1                                                               
%BLOCK SPECIES                                                                  
C C 6 4 9.0                                                                     
%ENDBLOCK SPECIES                                                               
%BLOCK SPECIES_POT                                                              
C "~/pp/paw/c_pbe_abinit.paw"                                                   
%ENDBLOCK SPECIES_POT                                                           
%BLOCK SPECIES_ATOMIC_SET                                                       
C "SOLVE conf=2s2 2p2"                                                          
%ENDBLOCK SPECIES_ATOMIC_SET                                                    
%BLOCK LATTICE_CART                                                             
32.21  0.00  0.00                                                               
0.00 18.59  0.00                                                                
0.00  0.00 60.80                                                                
%ENDBLOCK LATTICE_CART                                                          
%BLOCK POSITIONS_ABS                                                            
C  0.00  0.00  3.04                                                             
C  0.00  0.00 15.20                                                             
C  0.00  0.00 27.36                                                             
C  0.00  0.00 39.52                                                             
C  0.00  0.00 51.68                                                             
C  0.00  4.65  3.04                                                             
C  0.00  4.65 15.20                                                             
C  0.00  4.65 27.36                                                             
C  0.00  4.65 39.52                                                             
C  0.00  4.65 51.68                                                             
C  4.03  2.32  3.04                                                             
C  4.03  2.32 15.20                                                             
C  4.03  2.32 27.36                                                             
C  4.03  2.32 39.52                                                             
C  4.03  2.32 51.68                                                             
C  8.05  0.00  3.04                                                             
C  8.05  0.00 15.20                                                             
C  8.05  0.00 27.36                                                             
C  8.05  0.00 39.52                                                             
C  8.05  0.00 51.68                                                             
C  0.00  9.30  3.04                                                             
C  0.00  9.30 15.20                                                             
C  0.00  9.30 27.36                                                             
C  0.00  9.30 39.52                                                             
C  0.00  9.30 51.68                                                             
C  4.03  6.97  3.04                                                             
C  4.03  6.97 15.20                                                             
C  4.03  6.97 27.36                                                             
C  4.03  6.97 39.52                                                             
C  4.03  6.97 51.68                                                             
C  8.05  4.65  3.04                                                             
C  8.05  4.65 15.20                                                             
C  8.05  4.65 27.36                                                             
C  8.05  4.65 39.52                                                             
C  8.05  4.65 51.68                                                             
C 12.08  2.32  3.04                                                             
C 12.08  2.32 15.20                                                             
C 12.08  2.32 27.36                                                             
C 12.08  2.32 39.52                                                             
C 12.08  2.32 51.68                                                             
C 16.10  0.00  3.04                                                             
C 16.10  0.00 15.20                                                             
C 16.10  0.00 27.36                                                             
C 16.10  0.00 39.52                                                             
C 16.10  0.00 51.68                                                             
C  0.00 13.95  3.04                                                             
C  0.00 13.95 15.20                                                             
C  0.00 13.95 27.36                                                             
C  0.00 13.95 39.52                                                             
C  0.00 13.95 51.68                                                             
C  4.03 11.62  3.04                                                             
C  4.03 11.62 15.20                                                             
C  4.03 11.62 27.36                                                             
C  4.03 11.62 39.52                                                             
C  4.03 11.62 51.68                                                             
C  8.05  9.30  3.04                                                             
C  8.05  9.30 15.20                                                             
C  8.05  9.30 27.36                                                             
C  8.05  9.30 39.52                                                             
C  8.05  9.30 51.68                                                             
C 12.08  6.97  3.04                                                             
C 12.08  6.97 15.20                                                             
C 12.08  6.97 27.36                                                             
C 12.08  6.97 39.52                                                             
C 12.08  6.97 51.68                                                             
C 16.10  4.65  3.04                                                             
C 16.10  4.65 15.20                                                             
C 16.10  4.65 27.36                                                             
C 16.10  4.65 39.52                                                             
C 16.10  4.65 51.68                                                             
C 20.13  2.32  3.04                                                             
C 20.13  2.32 15.20                                                             
C 20.13  2.32 27.36                                                             
C 20.13  2.32 39.52                                                             
C 20.13  2.32 51.68                                                             
C 24.16  0.00  3.04                                                             
C 24.16  0.00 15.20                                                             
C 24.16  0.00 27.36                                                             
C 24.16  0.00 39.52                                                             
C 24.16  0.00 51.68                                                             
C  4.03 16.27  3.04                                                             
C  4.03 16.27 15.20                                                             
C  4.03 16.27 27.36                                                             
C  4.03 16.27 39.52                                                             
C  4.03 16.27 51.68                                                             
C  8.05 13.95  3.04                                                             
C  8.05 13.95 15.20                                                             
C  8.05 13.95 27.36                                                             
C  8.05 13.95 39.52                                                             
C  8.05 13.95 51.68                                                             
C 12.08 11.62  3.04                                                             
C 12.08 11.62 15.20                                                             
C 12.08 11.62 27.36                                                             
C 12.08 11.62 39.52                                                             
C 12.08 11.62 51.68                                                             
C 16.10  9.30  3.04                                                             
C 16.10  9.30 15.20                                                             
C 16.10  9.30 27.36                                                             
C 16.10  9.30 39.52                                                             
C 16.10  9.30 51.68                                                             
C 20.13  6.97  3.04                                                             
C 20.13  6.97 15.20                                                             
C 20.13  6.97 27.36                                                             
C 20.13  6.97 39.52                                                             
C 20.13  6.97 51.68                                                             
C 24.16  4.65  3.04                                                             
C 24.16  4.65 15.20                                                             
C 24.16  4.65 27.36                                                             
C 24.16  4.65 39.52                                                             
C 24.16  4.65 51.68                                                             
C 28.18  2.32  3.04                                                             
C 28.18  2.32 15.20                                                             
C 28.18  2.32 27.36                                                             
C 28.18  2.32 39.52                                                             
C 28.18  2.32 51.68                                                             
C 12.08 16.27  3.04                                                             
C 12.08 16.27 15.20                                                             
C 12.08 16.27 27.36                                                             
C 12.08 16.27 39.52                                                             
C 12.08 16.27 51.68                                                             
C 16.10 13.95  3.04                                                             
C 16.10 13.95 15.20                                                             
C 16.10 13.95 27.36                                                             
C 16.10 13.95 39.52                                                             
C 16.10 13.95 51.68                                                             
C 20.13 11.62  3.04                                                             
C 20.13 11.62 15.20                                                             
C 20.13 11.62 27.36                                                             
C 20.13 11.62 39.52                                                             
C 20.13 11.62 51.68                                                             
C 24.16  9.30  3.04                                                             
C 24.16  9.30 15.20                                                             
C 24.16  9.30 27.36                                                             
C 24.16  9.30 39.52                                                             
C 24.16  9.30 51.68                                                             
C 28.18  6.97  3.04                                                             
C 28.18  6.97 15.20                                                             
C 28.18  6.97 27.36                                                             
C 28.18  6.97 39.52                                                             
C 28.18  6.97 51.68                                                             
C 20.13 16.27  3.04                                                             
C 20.13 16.27 15.20                                                             
C 20.13 16.27 27.36                                                             
C 20.13 16.27 39.52                                                             
C 20.13 16.27 51.68                                                             
C 24.16 13.95  3.04                                                             
C 24.16 13.95 15.20                                                             
C 24.16 13.95 27.36                                                             
C 24.16 13.95 39.52                                                             
C 24.16 13.95 51.68                                                             
C 28.18 11.62  3.04                                                             
C 28.18 11.62 15.20                                                             
C 28.18 11.62 27.36                                                             
C 28.18 11.62 39.52                                                             
C 28.18 11.62 51.68                                                             
C 28.18 16.27  3.04                                                             
C 28.18 16.27 15.20                                                             
C 28.18 16.27 27.36                                                             
C 28.18 16.27 39.52                                                             
C 28.18 16.27 51.68                                                             
C  0.00  0.00  9.12                                                             
C  0.00  0.00 21.28                                                             
C  0.00  0.00 33.44                                                             
C  0.00  0.00 45.60                                                             
C  0.00  0.00 57.76                                                             
C  0.00  4.65  9.12                                                             
C  0.00  4.65 21.28                                                             
C  0.00  4.65 33.44                                                             
C  0.00  4.65 45.60                                                             
C  0.00  4.65 57.76                                                             
C  4.03  2.32  9.12                                                             
C  4.03  2.32 21.28                                                             
C  4.03  2.32 33.44                                                             
C  4.03  2.32 45.60                                                             
C  4.03  2.32 57.76                                                             
C  8.05  0.00  9.12                                                             
C  8.05  0.00 21.28                                                             
C  8.05  0.00 33.44                                                             
C  8.05  0.00 45.60                                                             
C  8.05  0.00 57.76                                                             
C  0.00  9.30  9.12                                                             
C  0.00  9.30 21.28                                                             
C  0.00  9.30 33.44                                                             
C  0.00  9.30 45.60                                                             
C  0.00  9.30 57.76                                                             
C  4.03  6.97  9.12                                                             
C  4.03  6.97 21.28                                                             
C  4.03  6.97 33.44                                                             
C  4.03  6.97 45.60                                                             
C  4.03  6.97 57.76                                                             
C  8.05  4.65  9.12                                                             
C  8.05  4.65 21.28                                                             
C  8.05  4.65 33.44                                                             
C  8.05  4.65 45.60                                                             
C  8.05  4.65 57.76                                                             
C 12.08  2.32  9.12                                                             
C 12.08  2.32 21.28                                                             
C 12.08  2.32 33.44                                                             
C 12.08  2.32 45.60                                                             
C 12.08  2.32 57.76                                                             
C 16.10  0.00  9.12                                                             
C 16.10  0.00 21.28                                                             
C 16.10  0.00 33.44                                                             
C 16.10  0.00 45.60                                                             
C 16.10  0.00 57.76                                                             
C  0.00 13.95  9.12                                                             
C  0.00 13.95 21.28                                                             
C  0.00 13.95 33.44                                                             
C  0.00 13.95 45.60                                                             
C  0.00 13.95 57.76                                                             
C  4.03 11.62  9.12                                                             
C  4.03 11.62 21.28                                                             
C  4.03 11.62 33.44                                                             
C  4.03 11.62 45.60                                                             
C  4.03 11.62 57.76                                                             
C  8.05  9.30  9.12                                                             
C  8.05  9.30 21.28                                                             
C  8.05  9.30 33.44                                                             
C  8.05  9.30 45.60                                                             
C  8.05  9.30 57.76                                                             
C 12.08  6.97  9.12                                                             
C 12.08  6.97 21.28                                                             
C 12.08  6.97 33.44                                                             
C 12.08  6.97 45.60                                                             
C 12.08  6.97 57.76                                                             
C 16.10  4.65  9.12                                                             
C 16.10  4.65 21.28                                                             
C 16.10  4.65 33.44                                                             
C 16.10  4.65 45.60                                                             
C 16.10  4.65 57.76                                                             
C 20.13  2.32  9.12                                                             
C 20.13  2.32 21.28                                                             
C 20.13  2.32 33.44                                                             
C 20.13  2.32 45.60                                                             
C 20.13  2.32 57.76                                                             
C 24.16  0.00  9.12                                                             
C 24.16  0.00 21.28                                                             
C 24.16  0.00 33.44                                                             
C 24.16  0.00 45.60                                                             
C 24.16  0.00 57.76                                                             
C  4.03 16.27  9.12                                                             
C  4.03 16.27 21.28                                                             
C  4.03 16.27 33.44                                                             
C  4.03 16.27 45.60                                                             
C  4.03 16.27 57.76                                                             
C  8.05 13.95  9.12                                                             
C  8.05 13.95 21.28                                                             
C  8.05 13.95 33.44                                                             
C  8.05 13.95 45.60                                                             
C  8.05 13.95 57.76                                                             
C 12.08 11.62  9.12                                                             
C 12.08 11.62 21.28                                                             
C 12.08 11.62 33.44                                                             
C 12.08 11.62 45.60                                                             
C 12.08 11.62 57.76                                                             
C 16.10  9.30  9.12                                                             
C 16.10  9.30 21.28                                                             
C 16.10  9.30 33.44                                                             
C 16.10  9.30 45.60                                                             
C 16.10  9.30 57.76                                                             
C 20.13  6.97  9.12                                                             
C 20.13  6.97 21.28                                                             
C 20.13  6.97 33.44                                                             
C 20.13  6.97 45.60                                                             
C 20.13  6.97 57.76                                                             
C 24.16  4.65  9.12                                                             
C 24.16  4.65 21.28                                                             
C 24.16  4.65 33.44                                                             
C 24.16  4.65 45.60                                                             
C 24.16  4.65 57.76                                                             
C 28.18  2.32  9.12                                                             
C 28.18  2.32 21.28                                                             
C 28.18  2.32 33.44                                                             
C 28.18  2.32 45.60                                                             
C 28.18  2.32 57.76                                                             
C 12.08 16.27  9.12                                                             
C 12.08 16.27 21.28                                                             
C 12.08 16.27 33.44                                                             
C 12.08 16.27 45.60                                                             
C 12.08 16.27 57.76                                                             
C 16.10 13.95  9.12                                                             
C 16.10 13.95 21.28                                                             
C 16.10 13.95 33.44                                                             
C 16.10 13.95 45.60                                                             
C 16.10 13.95 57.76                                                             
C 20.13 11.62  9.12                                                             
C 20.13 11.62 21.28                                                             
C 20.13 11.62 33.44                                                             
C 20.13 11.62 45.60                                                             
C 20.13 11.62 57.76                                                             
C 24.16  9.30  9.12                                                             
C 24.16  9.30 21.28                                                             
C 24.16  9.30 33.44                                                             
C 24.16  9.30 45.60                                                             
C 24.16  9.30 57.76                                                             
C 28.18  6.97  9.12                                                             
C 28.18  6.97 21.28                                                             
C 28.18  6.97 33.44                                                             
C 28.18  6.97 45.60                                                             
C 28.18  6.97 57.76                                                             
C 20.13 16.27  9.12                                                             
C 20.13 16.27 21.28                                                             
C 20.13 16.27 33.44                                                             
C 20.13 16.27 45.60                                                             
C 20.13 16.27 57.76                                                             
C 24.16 13.95  9.12                                                             
C 24.16 13.95 21.28                                                             
C 24.16 13.95 33.44                                                             
C 24.16 13.95 45.60                                                             
C 24.16 13.95 57.76                                                             
C 28.18 11.62  9.12                                                             
C 28.18 11.62 21.28                                                             
C 28.18 11.62 33.44                                                             
C 28.18 11.62 45.60                                                             
C 28.18 11.62 57.76                                                             
C 28.18 16.27  9.12                                                             
C 28.18 16.27 21.28                                                             
C 28.18 16.27 33.44                                                             
C 28.18 16.27 45.60                                                             
C 28.18 16.27 57.76                                                             
C  1.34  2.32  3.04                                                             
C  1.34  2.32 15.20                                                             
C  1.34  2.32 27.36                                                             
C  1.34  2.32 39.52                                                             
C  1.34  2.32 51.68                                                             
C  5.37  0.00  3.04                                                             
C  5.37  0.00 15.20                                                             
C  5.37  0.00 27.36                                                             
C  5.37  0.00 39.52                                                             
C  5.37  0.00 51.68                                                             
C  1.34  6.97  3.04                                                             
C  1.34  6.97 15.20                                                             
C  1.34  6.97 27.36                                                             
C  1.34  6.97 39.52                                                             
C  1.34  6.97 51.68                                                             
C  5.37  4.65  3.04                                                             
C  5.37  4.65 15.20                                                             
C  5.37  4.65 27.36                                                             
C  5.37  4.65 39.52                                                             
C  5.37  4.65 51.68                                                             
C  9.39  2.32  3.04                                                             
C  9.39  2.32 15.20                                                             
C  9.39  2.32 27.36                                                             
C  9.39  2.32 39.52                                                             
C  9.39  2.32 51.68                                                             
C 13.42  0.00  3.04                                                             
C 13.42  0.00 15.20                                                             
C 13.42  0.00 27.36                                                             
C 13.42  0.00 39.52                                                             
C 13.42  0.00 51.68                                                             
C  1.34 11.62  3.04                                                             
C  1.34 11.62 15.20                                                             
C  1.34 11.62 27.36                                                             
C  1.34 11.62 39.52                                                             
C  1.34 11.62 51.68                                                             
C  5.37  9.30  3.04                                                             
C  5.37  9.30 15.20                                                             
C  5.37  9.30 27.36                                                             
C  5.37  9.30 39.52                                                             
C  5.37  9.30 51.68                                                             
C  9.39  6.97  3.04                                                             
C  9.39  6.97 15.20                                                             
C  9.39  6.97 27.36                                                             
C  9.39  6.97 39.52                                                             
C  9.39  6.97 51.68                                                             
C 13.42  4.65  3.04                                                             
C 13.42  4.65 15.20                                                             
C 13.42  4.65 27.36                                                             
C 13.42  4.65 39.52                                                             
C 13.42  4.65 51.68                                                             
C 17.45  2.32  3.04                                                             
C 17.45  2.32 15.20                                                             
C 17.45  2.32 27.36                                                             
C 17.45  2.32 39.52                                                             
C 17.45  2.32 51.68                                                             
C 21.47  0.00  3.04                                                             
C 21.47  0.00 15.20                                                             
C 21.47  0.00 27.36                                                             
C 21.47  0.00 39.52                                                             
C 21.47  0.00 51.68                                                             
C  1.34 16.27  3.04                                                             
C  1.34 16.27 15.20                                                             
C  1.34 16.27 27.36                                                             
C  1.34 16.27 39.52                                                             
C  1.34 16.27 51.68                                                             
C  5.37 13.95  3.04                                                             
C  5.37 13.95 15.20                                                             
C  5.37 13.95 27.36                                                             
C  5.37 13.95 39.52                                                             
C  5.37 13.95 51.68                                                             
C  9.39 11.62  3.04                                                             
C  9.39 11.62 15.20                                                             
C  9.39 11.62 27.36                                                             
C  9.39 11.62 39.52                                                             
C  9.39 11.62 51.68                                                             
C 13.42  9.30  3.04                                                             
C 13.42  9.30 15.20                                                             
C 13.42  9.30 27.36                                                             
C 13.42  9.30 39.52                                                             
C 13.42  9.30 51.68                                                             
C 17.45  6.97  3.04                                                             
C 17.45  6.97 15.20                                                             
C 17.45  6.97 27.36                                                             
C 17.45  6.97 39.52                                                             
C 17.45  6.97 51.68                                                             
C 21.47  4.65  3.04                                                             
C 21.47  4.65 15.20                                                             
C 21.47  4.65 27.36                                                             
C 21.47  4.65 39.52                                                             
C 21.47  4.65 51.68                                                             
C 25.50  2.32  3.04                                                             
C 25.50  2.32 15.20                                                             
C 25.50  2.32 27.36                                                             
C 25.50  2.32 39.52                                                             
C 25.50  2.32 51.68                                                             
C 29.52  0.00  3.04                                                             
C 29.52  0.00 15.20                                                             
C 29.52  0.00 27.36                                                             
C 29.52  0.00 39.52                                                             
C 29.52  0.00 51.68                                                             
C  9.39 16.27  3.04                                                             
C  9.39 16.27 15.20                                                             
C  9.39 16.27 27.36                                                             
C  9.39 16.27 39.52                                                             
C  9.39 16.27 51.68                                                             
C 13.42 13.95  3.04                                                             
C 13.42 13.95 15.20                                                             
C 13.42 13.95 27.36                                                             
C 13.42 13.95 39.52                                                             
C 13.42 13.95 51.68                                                             
C 17.45 11.62  3.04                                                             
C 17.45 11.62 15.20                                                             
C 17.45 11.62 27.36                                                             
C 17.45 11.62 39.52                                                             
C 17.45 11.62 51.68                                                             
C 21.47  9.30  3.04                                                             
C 21.47  9.30 15.20                                                             
C 21.47  9.30 27.36                                                             
C 21.47  9.30 39.52                                                             
C 21.47  9.30 51.68                                                             
C 25.50  6.97  3.04                                                             
C 25.50  6.97 15.20                                                             
C 25.50  6.97 27.36                                                             
C 25.50  6.97 39.52                                                             
C 25.50  6.97 51.68                                                             
C 29.52  4.65  3.04                                                             
C 29.52  4.65 15.20                                                             
C 29.52  4.65 27.36                                                             
C 29.52  4.65 39.52                                                             
C 29.52  4.65 51.68                                                             
C 17.45 16.27  3.04                                                             
C 17.45 16.27 15.20                                                             
C 17.45 16.27 27.36                                                             
C 17.45 16.27 39.52                                                             
C 17.45 16.27 51.68                                                             
C 21.47 13.95  3.04                                                             
C 21.47 13.95 15.20                                                             
C 21.47 13.95 27.36                                                             
C 21.47 13.95 39.52                                                             
C 21.47 13.95 51.68                                                             
C 25.50 11.62  3.04                                                             
C 25.50 11.62 15.20                                                             
C 25.50 11.62 27.36                                                             
C 25.50 11.62 39.52                                                             
C 25.50 11.62 51.68                                                             
C 29.52  9.30  3.04                                                             
C 29.52  9.30 15.20                                                             
C 29.52  9.30 27.36                                                             
C 29.52  9.30 39.52                                                             
C 29.52  9.30 51.68                                                             
C 25.50 16.27  3.04                                                             
C 25.50 16.27 15.20                                                             
C 25.50 16.27 27.36                                                             
C 25.50 16.27 39.52                                                             
C 25.50 16.27 51.68                                                             
C 29.52 13.95  3.04                                                             
C 29.52 13.95 15.20                                                             
C 29.52 13.95 27.36                                                             
C 29.52 13.95 39.52                                                             
C 29.52 13.95 51.68                                                             
C  2.68  0.00  9.12                                                             
C  2.68  0.00 21.28                                                             
C  2.68  0.00 33.44                                                             
C  2.68  0.00 45.60                                                             
C  2.68  0.00 57.76                                                             
C  2.68  4.65  9.12                                                             
C  2.68  4.65 21.28                                                             
C  2.68  4.65 33.44                                                             
C  2.68  4.65 45.60                                                             
C  2.68  4.65 57.76                                                             
C  6.71  2.32  9.12                                                             
C  6.71  2.32 21.28                                                             
C  6.71  2.32 33.44                                                             
C  6.71  2.32 45.60                                                             
C  6.71  2.32 57.76                                                             
C 10.74  0.00  9.12                                                             
C 10.74  0.00 21.28                                                             
C 10.74  0.00 33.44                                                             
C 10.74  0.00 45.60                                                             
C 10.74  0.00 57.76                                                             
C  2.68  9.30  9.12                                                             
C  2.68  9.30 21.28                                                             
C  2.68  9.30 33.44                                                             
C  2.68  9.30 45.60                                                             
C  2.68  9.30 57.76                                                             
C  6.71  6.97  9.12                                                             
C  6.71  6.97 21.28                                                             
C  6.71  6.97 33.44                                                             
C  6.71  6.97 45.60                                                             
C  6.71  6.97 57.76                                                             
C 10.74  4.65  9.12                                                             
C 10.74  4.65 21.28                                                             
C 10.74  4.65 33.44                                                             
C 10.74  4.65 45.60                                                             
C 10.74  4.65 57.76                                                             
C 14.76  2.32  9.12                                                             
C 14.76  2.32 21.28                                                             
C 14.76  2.32 33.44                                                             
C 14.76  2.32 45.60                                                             
C 14.76  2.32 57.76                                                             
C 18.79  0.00  9.12                                                             
C 18.79  0.00 21.28                                                             
C 18.79  0.00 33.44                                                             
C 18.79  0.00 45.60                                                             
C 18.79  0.00 57.76                                                             
C  2.68 13.95  9.12                                                             
C  2.68 13.95 21.28                                                             
C  2.68 13.95 33.44                                                             
C  2.68 13.95 45.60                                                             
C  2.68 13.95 57.76                                                             
C  6.71 11.62  9.12                                                             
C  6.71 11.62 21.28                                                             
C  6.71 11.62 33.44                                                             
C  6.71 11.62 45.60                                                             
C  6.71 11.62 57.76                                                             
C 10.74  9.30  9.12                                                             
C 10.74  9.30 21.28                                                             
C 10.74  9.30 33.44                                                             
C 10.74  9.30 45.60                                                             
C 10.74  9.30 57.76                                                             
C 14.76  6.97  9.12                                                             
C 14.76  6.97 21.28                                                             
C 14.76  6.97 33.44                                                             
C 14.76  6.97 45.60                                                             
C 14.76  6.97 57.76                                                             
C 18.79  4.65  9.12                                                             
C 18.79  4.65 21.28                                                             
C 18.79  4.65 33.44                                                             
C 18.79  4.65 45.60                                                             
C 18.79  4.65 57.76                                                             
C 22.81  2.32  9.12                                                             
C 22.81  2.32 21.28                                                             
C 22.81  2.32 33.44                                                             
C 22.81  2.32 45.60                                                             
C 22.81  2.32 57.76                                                             
C 26.84  0.00  9.12                                                             
C 26.84  0.00 21.28                                                             
C 26.84  0.00 33.44                                                             
C 26.84  0.00 45.60                                                             
C 26.84  0.00 57.76                                                             
C  6.71 16.27  9.12                                                             
C  6.71 16.27 21.28                                                             
C  6.71 16.27 33.44                                                             
C  6.71 16.27 45.60                                                             
C  6.71 16.27 57.76                                                             
C 10.74 13.95  9.12                                                             
C 10.74 13.95 21.28                                                             
C 10.74 13.95 33.44                                                             
C 10.74 13.95 45.60                                                             
C 10.74 13.95 57.76                                                             
C 14.76 11.62  9.12                                                             
C 14.76 11.62 21.28                                                             
C 14.76 11.62 33.44                                                             
C 14.76 11.62 45.60                                                             
C 14.76 11.62 57.76                                                             
C 18.79  9.30  9.12                                                             
C 18.79  9.30 21.28                                                             
C 18.79  9.30 33.44                                                             
C 18.79  9.30 45.60                                                             
C 18.79  9.30 57.76                                                             
C 22.81  6.97  9.12                                                             
C 22.81  6.97 21.28                                                             
C 22.81  6.97 33.44                                                             
C 22.81  6.97 45.60                                                             
C 22.81  6.97 57.76                                                             
C 26.84  4.65  9.12                                                             
C 26.84  4.65 21.28                                                             
C 26.84  4.65 33.44                                                             
C 26.84  4.65 45.60                                                             
C 26.84  4.65 57.76                                                             
C 30.86  2.32  9.12                                                             
C 30.86  2.32 21.28                                                             
C 30.86  2.32 33.44                                                             
C 30.86  2.32 45.60                                                             
C 30.86  2.32 57.76                                                             
C 14.76 16.27  9.12                                                             
C 14.76 16.27 21.28                                                             
C 14.76 16.27 33.44                                                             
C 14.76 16.27 45.60                                                             
C 14.76 16.27 57.76                                                             
C 18.79 13.95  9.12                                                             
C 18.79 13.95 21.28                                                             
C 18.79 13.95 33.44                                                             
C 18.79 13.95 45.60                                                             
C 18.79 13.95 57.76                                                             
C 22.81 11.62  9.12                                                             
C 22.81 11.62 21.28                                                             
C 22.81 11.62 33.44                                                             
C 22.81 11.62 45.60                                                             
C 22.81 11.62 57.76                                                             
C 26.84  9.30  9.12                                                             
C 26.84  9.30 21.28                                                             
C 26.84  9.30 33.44                                                             
C 26.84  9.30 45.60                                                             
C 26.84  9.30 57.76                                                             
C 30.86  6.97  9.12                                                             
C 30.86  6.97 21.28                                                             
C 30.86  6.97 33.44                                                             
C 30.86  6.97 45.60                                                             
C 30.86  6.97 57.76                                                             
C 22.81 16.27  9.12                                                             
C 22.81 16.27 21.28                                                             
C 22.81 16.27 33.44                                                             
C 22.81 16.27 45.60                                                             
C 22.81 16.27 57.76                                                             
C 26.84 13.95  9.12                                                             
C 26.84 13.95 21.28                                                             
C 26.84 13.95 33.44                                                             
C 26.84 13.95 45.60                                                             
C 26.84 13.95 57.76                                                             
C 30.86 11.62  9.12                                                             
C 30.86 11.62 21.28                                                             
C 30.86 11.62 33.44                                                             
C 30.86 11.62 45.60                                                             
C 30.86 11.62 57.76                                                             
C 30.86 16.27  9.12                                                             
C 30.86 16.27 21.28                                                             
C 30.86 16.27 33.44                                                             
C 30.86 16.27 45.60                                                             
C 30.86 16.27 57.76                                                             
%ENDBLOCK POSITIONS_ABS                                                         

--------------------------------------------------------------------------------
-------------------------------- END INPUT FILE --------------------------------
--------------------------------------------------------------------------------


 
<<<<<<<<<<<<<<<<<<<<<<<<<<<<<<<<< Full system >>>>>>>>>>>>>>>>>>>>>>>>>>>>>>>>>>
<<<<<<<<<<<<<<<<<<<<<<<<<<< PAW Dataset information >>>>>>>>>>>>>>>>>>>>>>>>>>>
File: ~/pp/paw/c_pbe_abinit.paw; rc = 1.25 bohr; shape type =  3; rshape = 1.25 bohr;
  Atomic number:  6;  ionic charge:  4.000000
    Partial Wave 1: l = 0
    Partial Wave 2: l = 0
    Partial Wave 3: l = 1
    Partial Wave 4: l = 1
  Core charge supplied for Nonlinear Core Corrections
<<<<<<<<<<<<<<<<<<<<<<<<<<<<<<<<<<<<<<< >>>>>>>>>>>>>>>>>>>>>>>>>>>>>>>>>>>>>>>

-------------------------- Atom counting information ---------------------------
Symbol    Natoms    Nngwfs    Nprojs
  C        640      2560      5120
.......   ......    ......    ......
Totals:    640      2560      5120
--------------------------------------------------------------------------------

=============================== PSINC grid sizes ===============================
                      Simulation cell:   63 x  35 x 120
                              FFT-box:   63 x  35 x 117
                                  PPD:    7 x   5 x   1
Grid space d1=  0.511269841270a0 (KE cutoff=  29.06054Eh = 790.77748eV)
Grid space d2=  0.531142857143a0 (KE cutoff=  26.92659Eh = 732.70972eV)
Grid space d3=  0.506666666667a0 (KE cutoff=  29.59098Eh = 805.21151eV)
================================================================================
  
WARNING in cell_grid_distribute:
Average of less than one 23-slab per node, so workload cannot be
equally balanced between nodes.

********************* Fourier parallelisation information **********************
       Coarse grid (whole simulation cell) dimensions:     63    35   120
          Real-space ('12') slabs/node (min max mean):      3     3     3
         Recip-space ('23') slabs/node (min max mean):      0     1     0
********************************************************************************

********************* Fourier parallelisation information **********************
       Double grid (whole simulation cell) dimensions:    126    70   240
          Real-space ('12') slabs/node (min max mean):      6     6     6
         Recip-space ('23') slabs/node (min max mean):      1     2     1
********************************************************************************

Atom SCF Calculation for C  : Z (AE atom) =   6 : Z (PS atom) =   4
Config String: 2s2 2p2
Orbitals (num,occ):  2     2.00 2.00
Orbitals   (num,l):  2        0    1
Real-space Grid (nr,dr,rmax): 1293    0.0069659443    9.0000000000
Spherical Bessel Basis (nsws,lmax,cutoff):   37    2  161.4736382572
Confining potential (l,width,scale):  0    3.0000000000  100.0000000000
Confining potential (l,width,scale):  1    3.0000000000  100.0000000000
  1         -5.4966243538   -1.3415066196    4.5135257941   -1.6613421942
  2         -5.4660395227   -1.4172174419    4.4326892861   -1.6365362708
  3         -5.4759582348   -1.4337557188    4.4144498970   -1.6324663609
  4         -5.4843804720   -1.4365219414    4.4114201180   -1.6322033818
  5         -5.4882713954   -1.4381734139    4.4096331461   -1.6320227940
  6         -5.4902132675   -1.4390636620    4.4086785626   -1.6319270645
  7         -5.4912093711   -1.4395303631    4.4081823351   -1.6318789226
  8         -5.4917264140   -1.4397726342    4.4079268833   -1.6318551036
  9         -5.4919964206   -1.4398979410    4.4077958777   -1.6318434025
 10         -5.4921379132   -1.4399626875    4.4077287721   -1.6318376788
 11         -5.4922122245   -1.4399961532    4.4076943935   -1.6318348878
 12         -5.4922513136   -1.4400134684    4.4076767658   -1.6318335308
 13         -5.4922719001   -1.4400224400    4.4076677156   -1.6318328728
 14         -5.4922827535   -1.4400270959    4.4076630621   -1.6318325547
 15         -5.4922884809   -1.4400295164    4.4076606653   -1.6318324014
 16         -5.4922915059   -1.4400307770    4.4076594286   -1.6318323279
 17         -5.4922931051   -1.4400314347    4.4076587894   -1.6318322927
 18         -5.4922939512   -1.4400317785    4.4076584583   -1.6318322760
 19         -5.4922943993   -1.4400319585    4.4076582865   -1.6318322681
 20         -5.4922946368   -1.4400320529    4.4076581972   -1.6318322644
 21         -5.4922947627   -1.4400321025    4.4076581507   -1.6318322627
 22         -5.4922948296   -1.4400321287    4.4076581265   -1.6318322619
Atom SCF converged after  22 iterations to a total energy of     -5.49229483

Determining parallel strategy ...
... using space-filling curve
... NGWF load balancing: max     64;  min     64;  average     64
... Projector load balancing: max    128;  min    128;  average    128
... done
Calculating Ewald energy ...
              Ewald: real-space energy =    9523.991193
        Ewald: reciprocal-space energy =       0.044294
         Ewald: (sum_charge)**2 Energy =   11472.693175
         Ewald: (sum_charge**2) Energy =     906.996033
                          Ewald Energy =   -2855.653722
Basis initialisation ...... NGWF spheres initialised
... Projector spheres initialised
... NGWF tight boxes initialised
... Projector tight boxes initialised
... Tight-boxes gathered
... NGWF basis size (local,global):     694036  27886560
... PAW projector initialisation
... done

============================= Charge Augmentation ==============================
                           Aug box size:   11 x  11 x  11
================================================================================

========================== Sparse matrix information ===========================
                        Overlap matrix filling:  44.38%
                        Density kernel filling: 100.00%
              NGWF-Proj overlap matrix filling:  13.12%
                    Aug Overlap matrix filling:  47.81%
                    Hamiltonian matrix filling:  47.81%
                  NGWF diagonal matrix filling:   0.16%
                             KS matrix filling: 100.00% 
                           KSKS matrix filling: 100.00% 
================================================================================

Sparse matrix initialisation ... done
NGWF initialisation ...... done
============ Calculation of NGWF S^-1 using Hotelling algorithm ================ 
         Iteration  |  Frobenius norm and Maximum abs value    (of I-S*S_n^-1)   
               1       0.49226335E+02     0.97804123E+00
               2       0.48113624E+02     0.95790717E+00
               3       0.46412550E+02     0.92209640E+00
               4       0.44158227E+02     0.86336956E+00
               5       0.41419012E+02     0.77592082E+00
               6       0.38162783E+02     0.69095797E+00
               7       0.34641024E+02     0.64025726E+00
               8       0.31250057E+02     0.59790627E+00
               9       0.27765031E+02     0.55545397E+00
              10       0.23471962E+02     0.49229201E+00
              11       0.17850935E+02     0.39041261E+00
              12       0.11133020E+02     0.25010545E+00
              13       0.48932494E+01     0.10836142E+00
              14       0.11293603E+01     0.23044541E-01
              15       0.72850290E-01     0.12788651E-02
              16       0.39282642E-03     0.51554340E-05
              17       0.17287797E-07     0.13770485E-09
              18       0.83946873E-13     0.46629367E-14
================================================================================
Calculating core density ...
================================= Core Density =================================
               Core den box size:   21 x  21 x  21
================================================================================
 ... done
Up spin density kernel initialisation ...... done

Writing density kernel to file "3.21716088_GO_manual_4x64graphite.dkn" ... done

>>> Optimising kernel for current NGWFs:

--------------------------- Ensemble-DFT optimisation --------------------------
Running ScaLAPACK on   40 processor(s).

--------------------------------------------------------------------------------
  Iter                              Commutator    Free_energy(A=E-TS)     DeltaA
#    0                          0.000046161846   -3656.99797204633069  -3.66E+03

Step                       =       0.381966011250
Energy                     =   -3656.997933852356
Entropy (-TS)              =      -0.000038193464
Free energy (A=E-TS)       =   -3656.997972046331
Est. 0K Energy 0.5*(E+A)   =   -3656.997952949343
Residual Non-orthogonality =       0.000000000000
Residual N_electrons       =      -0.000000000511

Spin          Integrated_Ne            Fermi_level     Delta_Fermi_level
   1      2560.000000002183         0.234021923846              2.34E-01

                           Spin 1          
     Orb      H-eigenvalues     Occupancies
       1 |    -0.4917590516    1.0000000000 | 
                          ------
    1276 |     0.2009663654    0.9999707066 | 
    1277 |     0.2015820723    0.9999644201 | 
    1278 |     0.2015820723    0.9999644201 | 
    1279 |     0.2020382414    0.9999589077 | 
    1280 |     0.2026426406    0.9999502671 | 
                 - Gap at zero temperature -
    1281 |     0.2678245531    0.0000231376 | 
    1282 |     0.2678245531    0.0000231376 | 
    1283 |     0.2679243525    0.0000224199 | 
    1284 |     0.2680574102    0.0000214974 | 
    1285 |     0.2680574102    0.0000214974 | 
                          ------
    2560 |     1.0682094490    0.0000000000 | 

                       |  Abs_value |  Threshold | Converged
     Delta_Free_energy |   3.66E+03 |   1.00E-06 |        No
     Delta_Energy      |   3.66E+03 |   1.00E-04 |        No
     Delta_Entropy     |   3.82E-05 |   1.00E-04 |       Yes
     Commutator        |   4.62E-05 |   1.00E-05 |        No
     Delta_Fermi_level |   2.34E-01 |   1.00E-03 |        No

  Line search of the free energy minimum:
  Step_type        Step             Free_energy   Predicted_free_energy
.   Initial    0.000000    -3656.99797204633069
.    Trial1    0.381966    -3657.00009646685339
.    Trial2    0.618034    -3656.99992933295653
. Quadratic    0.465106    -3657.00016571577635    -3657.00016658915865

--------------------------------------------------------------------------------
  Iter                              Commutator    Free_energy(A=E-TS)     DeltaA
#    1                          0.000022603011   -3657.00016571577635  -2.19E-03

Step                       =       0.465105543723
Energy                     =   -3657.000128866113
Entropy (-TS)              =      -0.000036850079
Free energy (A=E-TS)       =   -3657.000165715776
Est. 0K Energy 0.5*(E+A)   =   -3657.000147290944
Residual Non-orthogonality =       0.000000000000
Residual N_electrons       =       0.000000000416

Spin          Integrated_Ne            Fermi_level     Delta_Fermi_level
   1      2559.999999998242         0.236521870894              2.50E-03

                           Spin 1          
     Orb      H-eigenvalues     Occupancies
       1 |    -0.4902535692    1.0000000000 | 
                          ------
    1276 |     0.2034182280    0.9999711480 | 
    1277 |     0.2039072728    0.9999663302 | 
    1278 |     0.2039072728    0.9999663302 | 
    1279 |     0.2045131803    0.9999592309 | 
    1280 |     0.2049912896    0.9999525872 | 
                 - Gap at zero temperature -
    1281 |     0.2704298431    0.0000223807 | 
    1282 |     0.2704298431    0.0000223807 | 
    1283 |     0.2705514963    0.0000215372 | 
    1284 |     0.2707351706    0.0000203236 | 
    1285 |     0.2707351706    0.0000203236 | 
                          ------
    2560 |     1.0723603568    0.0000000000 | 

                       |  Abs_value |  Threshold | Converged
     Delta_Free_energy |   2.19E-03 |   1.00E-06 |        No
     Delta_Energy      |   2.20E-03 |   1.00E-04 |        No
     Delta_Entropy     |   1.34E-06 |   1.00E-04 |       Yes
     Commutator        |   2.26E-05 |   1.00E-05 |        No
     Delta_Fermi_level |   2.50E-03 |   1.00E-03 |        No

  Line search of the free energy minimum:
  Step_type        Step             Free_energy   Predicted_free_energy
.   Initial    0.000000    -3657.00016571577635
.    Trial1    0.465106    -3657.00046405993680
.    Trial2    0.669417    -3656.99991863515470
. Quadratic    0.297397    -3657.00060412219136    -3657.00060317617590

--------------------------------------------------------------------------------
  Iter                              Commutator    Free_energy(A=E-TS)     DeltaA
#    2                          0.000014950214   -3657.00060412219136  -4.38E-04

Step                       =       0.297396768588
Energy                     =   -3657.000567838584
Entropy (-TS)              =      -0.000036283320
Free energy (A=E-TS)       =   -3657.000604122191
Est. 0K Energy 0.5*(E+A)   =   -3657.000585980388
Residual Non-orthogonality =       0.000000000000
Residual N_electrons       =      -0.000000000288

Spin          Integrated_Ne            Fermi_level     Delta_Fermi_level
   1      2560.000000001214         0.237332911902              8.11E-04

                           Spin 1          
     Orb      H-eigenvalues     Occupancies
       1 |    -0.4897488831    1.0000000000 | 
                          ------
    1276 |     0.2041587245    0.9999717836 | 
    1277 |     0.2046825690    0.9999667081 | 
    1278 |     0.2046825690    0.9999667081 | 
    1279 |     0.2052486891    0.9999601918 | 
    1280 |     0.2057613774    0.9999531963 | 
                 - Gap at zero temperature -
    1281 |     0.2712985265    0.0000219770 | 
    1282 |     0.2712985265    0.0000219770 | 
    1283 |     0.2714180247    0.0000211632 | 
    1284 |     0.2716142474    0.0000198917 | 
    1285 |     0.2716142474    0.0000198917 | 
                          ------
    2560 |     1.0737607338    0.0000000000 | 

                       |  Abs_value |  Threshold | Converged
     Delta_Free_energy |   4.38E-04 |   1.00E-06 |        No
     Delta_Energy      |   4.39E-04 |   1.00E-04 |        No
     Delta_Entropy     |   5.67E-07 |   1.00E-04 |       Yes
     Commutator        |   1.50E-05 |   1.00E-05 |        No
     Delta_Fermi_level |   8.11E-04 |   1.00E-03 |       Yes

  Line search of the free energy minimum:
  Step_type        Step             Free_energy   Predicted_free_energy
.   Initial    0.000000    -3657.00060412219136
.    Trial1    0.297397    -3657.00077779080084
.    Trial2    0.565767    -3657.00058985570149
. Quadratic    0.277329    -3657.00077872997144    -3657.00077870490986

--------------------------------------------------------------------------------
  Iter                              Commutator    Free_energy(A=E-TS)     DeltaA
#    3                          0.000010505917   -3657.00077872997144  -1.75E-04

Step                       =       0.277329233374
Energy                     =   -3657.000742800611
Entropy (-TS)              =      -0.000035929627
Free energy (A=E-TS)       =   -3657.000778729971
Est. 0K Energy 0.5*(E+A)   =   -3657.000760765291
Residual Non-orthogonality =       0.000000000000
Residual N_electrons       =       0.000000000266

Spin          Integrated_Ne            Fermi_level     Delta_Fermi_level
   1      2559.999999998882         0.237868392971              5.35E-04

                           Spin 1          
     Orb      H-eigenvalues     Occupancies
       1 |    -0.4894129282    1.0000000000 | 
                          ------
    1276 |     0.2046586695    0.9999720985 | 
    1277 |     0.2051879407    0.9999670231 | 
    1278 |     0.2051879407    0.9999670231 | 
    1279 |     0.2057477633    0.9999606468 | 
    1280 |     0.2062658345    0.9999536526 | 
                 - Gap at zero temperature -
    1281 |     0.2718667303    0.0000217511 | 
    1282 |     0.2718667303    0.0000217511 | 
    1283 |     0.2719865961    0.0000209432 | 
    1284 |     0.2721834550    0.0000196809 | 
    1285 |     0.2721834550    0.0000196809 | 
                          ------
    2560 |     1.0746895913    0.0000000000 | 

                       |  Abs_value |  Threshold | Converged
     Delta_Free_energy |   1.75E-04 |   1.00E-06 |        No
     Delta_Energy      |   1.75E-04 |   1.00E-04 |        No
     Delta_Entropy     |   3.54E-07 |   1.00E-04 |       Yes
     Commutator        |   1.05E-05 |   1.00E-05 |        No
     Delta_Fermi_level |   5.35E-04 |   1.00E-03 |       Yes

  Line search of the free energy minimum:
  Step_type        Step             Free_energy   Predicted_free_energy
.   Initial    0.000000    -3657.00077872997144
.    Trial1    0.277329    -3657.00086300867542
.    Trial2    0.553365    -3657.00078097659070
. Quadratic    0.278551    -3657.00086300981866    -3657.00086301029751

--------------------------------------------------------------------------------
  Iter                              Commutator    Free_energy(A=E-TS)     DeltaA
#    4                          0.000007670191   -3657.00086300981866  -8.43E-05

Step                       =       0.278551291321
Energy                     =   -3657.000827331378
[...]
 C   160 -- C   385       -0.10      5.37000
 C   159 -- C   384       -0.10      5.37000
 C   158 -- C   383       -0.10      5.37000
 C   157 -- C   382       -0.10      5.37000
 C   156 -- C   381       -0.10      5.37000
 C   155 -- C   355       -0.10      5.37000
 C   154 -- C   354       -0.10      5.37000
 C   153 -- C   353       -0.10      5.37000
 C   152 -- C   352       -0.10      5.37000
 C   151 -- C   351       -0.10      5.37000
 C   140 -- C   335       -0.10      5.37000
 C   139 -- C   334       -0.10      5.37000
 C   138 -- C   333       -0.10      5.37000
 C   137 -- C   332       -0.10      5.37000
 C   136 -- C   331       -0.10      5.37000
 C   115 -- C   325       -0.10      5.37000
 C   114 -- C   324       -0.10      5.37000
 C   113 -- C   323       -0.10      5.37000
 C   112 -- C   322       -0.10      5.37000
 C   111 -- C   321       -0.10      5.37000
 C   219 -- C   569       -0.10      5.37202
 C   218 -- C   568       -0.10      5.37202
 C   217 -- C   567       -0.10      5.37202
 C   216 -- C   566       -0.10      5.37202
 C   250 -- C   540       -0.10      5.37202
 C   249 -- C   539       -0.10      5.37202
 C   248 -- C   538       -0.10      5.37202
 C   247 -- C   537       -0.10      5.37202
 C   246 -- C   536       -0.10      5.37202
 C   220 -- C   570       -0.10      5.37202
 C   285 -- C   580       -0.10      5.37202
 C   284 -- C   579       -0.10      5.37202
 C   283 -- C   578       -0.10      5.37202
 C   282 -- C   577       -0.10      5.37202
 C   281 -- C   576       -0.10      5.37202
 C   260 -- C   605       -0.10      5.37202
 C   259 -- C   604       -0.10      5.37202
 C   258 -- C   603       -0.10      5.37202
 C   257 -- C   602       -0.10      5.37202
 C   256 -- C   601       -0.10      5.37202
 C   220 -- C   515       -0.10      5.37202
 C   219 -- C   514       -0.10      5.37202
 C   218 -- C   513       -0.10      5.37202
 C   217 -- C   512       -0.10      5.37202
 C   216 -- C   511       -0.10      5.37202
 C   195 -- C   540       -0.10      5.37202
 C   195 -- C   500       -0.10      5.37202
 C   194 -- C   539       -0.10      5.37202
 C   194 -- C   499       -0.10      5.37202
 C   193 -- C   538       -0.10      5.37202
 C   193 -- C   498       -0.10      5.37202
 C   192 -- C   537       -0.10      5.37202
 C   192 -- C   497       -0.10      5.37202
 C   191 -- C   536       -0.10      5.37202
 C   191 -- C   496       -0.10      5.37202
 C   180 -- C   515       -0.10      5.37202
 C   179 -- C   514       -0.10      5.37202
 C   178 -- C   513       -0.10      5.37202
 C   177 -- C   512       -0.10      5.37202
 C   176 -- C   511       -0.10      5.37202
 C    11 -- C   331       -0.10      5.37202
 C   205 -- C   550       -0.10      5.37202
 C   204 -- C   549       -0.10      5.37202
 C   203 -- C   548       -0.10      5.37202
 C   202 -- C   547       -0.10      5.37202
 C   201 -- C   546       -0.10      5.37202
 C    95 -- C   425       -0.10      5.37202
 C    95 -- C   365       -0.10      5.37202
 C    94 -- C   424       -0.10      5.37202
 C    94 -- C   364       -0.10      5.37202
 C    93 -- C   423       -0.10      5.37202
 C    93 -- C   363       -0.10      5.37202
 C    92 -- C   422       -0.10      5.37202
 C    92 -- C   362       -0.10      5.37202
 C    91 -- C   421       -0.10      5.37202
 C    91 -- C   361       -0.10      5.37202
 C    40 -- C   365       -0.10      5.37202
 C    39 -- C   364       -0.10      5.37202
 C    38 -- C   363       -0.10      5.37202
 C    37 -- C   362       -0.10      5.37202
 C    36 -- C   361       -0.10      5.37202
 C    15 -- C   335       -0.10      5.37202
 C    65 -- C   395       -0.10      5.37202
 C    65 -- C   345       -0.10      5.37202
 C    64 -- C   394       -0.10      5.37202
 C    64 -- C   344       -0.10      5.37202
 C    63 -- C   393       -0.10      5.37202
 C    30 -- C   355       -0.10      5.37202
 C    63 -- C   343       -0.10      5.37202
 C    62 -- C   392       -0.10      5.37202
 C    30 -- C   325       -0.10      5.37202
 C    14 -- C   334       -0.10      5.37202
 C    62 -- C   342       -0.10      5.37202
 C    61 -- C   391       -0.10      5.37202
 C    29 -- C   354       -0.10      5.37202
 C    61 -- C   341       -0.10      5.37202
 C    29 -- C   324       -0.10      5.37202
 C   260 -- C   550       -0.10      5.37202
 C   259 -- C   549       -0.10      5.37202
 C    28 -- C   353       -0.10      5.37202
 C   258 -- C   548       -0.10      5.37202
 C   257 -- C   547       -0.10      5.37202
 C   256 -- C   546       -0.10      5.37202
 C    28 -- C   323       -0.10      5.37202
 C    27 -- C   352       -0.10      5.37202
 C    13 -- C   333       -0.10      5.37202
 C    27 -- C   322       -0.10      5.37202
 C   120 -- C   395       -0.10      5.37202
 C    26 -- C   351       -0.10      5.37202
 C   119 -- C   394       -0.10      5.37202
 C   118 -- C   393       -0.10      5.37202
 C    55 -- C   335       -0.10      5.37202
 C   117 -- C   392       -0.10      5.37202
 C    26 -- C   321       -0.10      5.37202
 C   116 -- C   391       -0.10      5.37202
 C    54 -- C   334       -0.10      5.37202
 C    12 -- C   332       -0.10      5.37202
 C    53 -- C   333       -0.10      5.37202
 C   230 -- C   580       -0.10      5.37202
 C   230 -- C   525       -0.10      5.37202
 C   229 -- C   579       -0.10      5.37202
 C   229 -- C   524       -0.10      5.37202
 C   228 -- C   578       -0.10      5.37202
 C    52 -- C   332       -0.10      5.37202
 C   228 -- C   523       -0.10      5.37202
 C   227 -- C   577       -0.10      5.37202
 C   227 -- C   522       -0.10      5.37202
 C   226 -- C   576       -0.10      5.37202
 C   226 -- C   521       -0.10      5.37202
 C    51 -- C   331       -0.10      5.37202
 C    23 -- C   478       -0.10      5.37202
 C    49 -- C   469       -0.10      5.37202
 C    48 -- C   468       -0.10      5.37202
 C    47 -- C   467       -0.10      5.37202
 C    22 -- C   477       -0.10      5.37202
 C    46 -- C   466       -0.10      5.37202
 C    21 -- C   476       -0.10      5.37202
 C    85 -- C   355       -0.10      5.37202
 C    84 -- C   354       -0.10      5.37202
 C    83 -- C   353       -0.10      5.37202
 C    82 -- C   352       -0.10      5.37202
 C    81 -- C   351       -0.10      5.37202
 C    55 -- C   385       -0.10      5.37202
 C    54 -- C   384       -0.10      5.37202
 C    25 -- C   480       -0.10      5.37202
 C    53 -- C   383       -0.10      5.37202
 C    52 -- C   382       -0.10      5.37202
 C    51 -- C   381       -0.10      5.37202
 C    24 -- C   479       -0.10      5.37202
 C    50 -- C   470       -0.10      5.37202
 C    24 -- C   449       -0.10      5.37202
 C     6 -- C   416       -0.10      5.37202
 C    23 -- C   448       -0.10      5.37202
 C    22 -- C   447       -0.10      5.37202
 C    10 -- C   470       -0.10      5.37202
 C     5 -- C   450       -0.10      5.37202
 C    21 -- C   446       -0.10      5.37202
 C    10 -- C   420       -0.10      5.37202
 C     9 -- C   469       -0.10      5.37202
 C     9 -- C   419       -0.10      5.37202
 C     8 -- C   468       -0.10      5.37202
 C     4 -- C   449       -0.10      5.37202
 C   150 -- C   440       -0.10      5.37202
 C   149 -- C   439       -0.10      5.37202
 C   148 -- C   438       -0.10      5.37202
 C   147 -- C   437       -0.10      5.37202
 C     8 -- C   418       -0.10      5.37202
 C   146 -- C   436       -0.10      5.37202
 C     2 -- C   447       -0.10      5.37202
 C   135 -- C   460       -0.10      5.37202
 C     7 -- C   467       -0.10      5.37202
 C   134 -- C   459       -0.10      5.37202
 C   133 -- C   458       -0.10      5.37202
 C   132 -- C   457       -0.10      5.37202
 C   131 -- C   456       -0.10      5.37202
 C     7 -- C   417       -0.10      5.37202
 C     1 -- C   446       -0.10      5.37202
 C     6 -- C   466       -0.10      5.37202
 C    25 -- C   450       -0.10      5.37202
 C     3 -- C   448       -0.10      5.37202
 C   106 -- C   436       -0.10      5.37202
 C   106 -- C   376       -0.10      5.37202
 C    80 -- C   410       -0.10      5.37202
 C    79 -- C   409       -0.10      5.37202
 C    78 -- C   408       -0.10      5.37202
 C    77 -- C   407       -0.10      5.37202
 C    76 -- C   406       -0.10      5.37202
 C   135 -- C   410       -0.10      5.37202
 C   134 -- C   409       -0.10      5.37202
 C   133 -- C   408       -0.10      5.37202
 C   132 -- C   407       -0.10      5.37202
 C   131 -- C   406       -0.10      5.37202
 C   110 -- C   440       -0.10      5.37202
 C   110 -- C   380       -0.10      5.37202
 C   109 -- C   439       -0.10      5.37202
 C   109 -- C   379       -0.10      5.37202
 C   108 -- C   438       -0.10      5.37202
 C   108 -- C   378       -0.10      5.37202
 C   107 -- C   437       -0.10      5.37202
 C   107 -- C   377       -0.10      5.37202
 C   215 -- C   635       -0.10      5.38000
 C   214 -- C   634       -0.10      5.38000
 C   213 -- C   633       -0.10      5.38000
 C   212 -- C   632       -0.10      5.38000
 C   211 -- C   631       -0.10      5.38000
 C   190 -- C   620       -0.10      5.38000
 C   189 -- C   619       -0.10      5.38000
 C   188 -- C   618       -0.10      5.38000
 C   187 -- C   617       -0.10      5.38000
 C   186 -- C   616       -0.10      5.38000
 C   175 -- C   595       -0.10      5.38000
 C   174 -- C   594       -0.10      5.38000
 C   173 -- C   593       -0.10      5.38000
 C   172 -- C   592       -0.10      5.38000
 C   171 -- C   591       -0.10      5.38000
 C   245 -- C   640       -0.10      5.38000
 C   244 -- C   639       -0.10      5.38000
 C   243 -- C   638       -0.10      5.38000
 C   242 -- C   637       -0.10      5.38000
 C   241 -- C   636       -0.10      5.38000
==================================================


=================== Orbital energy and occupancy information ===================

      Total number of orbitals:    2560
        Occupancy sum (kernel):    1279.999999999
   Occupancy sum (eigenvalues):    1279.999999999
                 HOMO-LUMO gap:       0.062427886 Eh
                 Mid-gap level:       0.279985039 Eh

                        Orbital | Energy (Eh) | Occupancy
                            1    -0.448649424   1.0000000
                        .......   ...........   .........
                         1271     0.243224446   0.9999879
                         1272     0.243224446   0.9999879
                         1273     0.243695630   0.9999859
                         1274     0.243695630   0.9999859
                         1275     0.247656861   0.9999509
                         1276     0.247656861   0.9999509
                         1277     0.248101818   0.9999435
                         1278     0.248101818   0.9999435
                         1279     0.248343014   0.9999390
                         1280     0.248771096   0.9999302
                        ....... -- gap at 0K -- .........
                         1281     0.311198982   0.0000392
                         1282     0.311198982   0.0000392
                         1283     0.311457837   0.0000361
                         1284     0.311457837   0.0000361
                         1285     0.312090105   0.0000297
                         1286     0.312090105   0.0000297
                         1287     0.312365810   0.0000272
                         1288     0.312365810   0.0000272
                         1289     0.312739014   0.0000242
                         1290     0.313020889   0.0000222
                        .......   ...........   .........
                         2560     1.171438038   0.0000000

================================================================================

===================== Writing canonical molecular orbitals =====================
| Orbital  Energy (eV)  Norm     |
| HOMO      6.76940598  1.000000 | Writing "3.21716088_GO_manual_4x64graphite_HOMO.cube" ... done
Writing "3.21716088_GO_manual_4x64graphite_HOMO.dx" ... done
| LUMO      8.46815519  1.000000 | Writing "3.21716088_GO_manual_4x64graphite_LUMO.cube" ... done
Writing "3.21716088_GO_manual_4x64graphite_LUMO.dx" ... done
================================================================================
 
===================== Density of States (DOS) calculation ======================
Writing "3.21716088_GO_manual_4x64graphite_DOS.txt" ...  done
================================================================================
 
Writing bands to file "3.21716088_GO_manual_4x64graphite.val_bands" ... done
 
================ Projected Density of States (pDOS) calculation ================
 
Constructing AM resolved functions  ...... done
Writing NGWF plot files in formats: CUBE DX ...  done
 
Performing overlap integrals ...  done
 
Computing pDOS weights ...  done
 
All bands spilling parameter =   3.95 %
Occupancy-weighted spilling parameter =   0.86 %
 
 => Outputting data for OptaDOS <=
 
Writing pDOS weights to file "3.21716088_GO_manual_4x64graphite.val_pdos_bin" ... done
 
Writing band gradients to file "3.21716088_GO_manual_4x64graphite.val_dome_bin" ... done
 
Writing Castep output cell file to "3.21716088_GO_manual_4x64graphite-out.cell" ... done
 
 => Computing Gaussian smeared pDOS <= 
Writing "3.21716088_GO_manual_4x64graphite_PDOS.txt" ...  done
 
 => Computing Occupancy-weighted Gaussian smeared pDOS <= 
Writing "3.21716088_GO_manual_4x64graphite_occ_PDOS.txt" ...  done
  => Band centres: 
 S band centre of group 1:  -13.901239 eV
 P band centre of group 1:   -6.762586 eV
  Band centres done. <=
  => Integrated number of electrons in each AM band: 
 S num electrons of group 1:  577.540554
 P num electrons of group 1: 1960.470279
  Integrated number of electrons done. <=
================================================================================

------------------------------ TIMING INFORMATION ------------------------------
AVERAGE TIME:    4339.077s on     40 node(s)                                    
TOTAL TIME:      4339.078s on     40 node(s)                                    
================= AVERAGE TIMINGS FROM ALL NODES (CUMULATIVE) ==================
|| TAG                                    #calls    cpu time   %total  Gflops ||
|| work_imbalance                       :     1        0.00s   0.000%  ------ ||
|| paw_tcore_hartree_on_grid            :     1        0.00s   0.000%  ------ ||
|| paw_tcore_density                    :     1        0.01s   0.000%  ------ ||
|| paw_sphere_density_on_grid           :     1        0.01s   0.000%  ------ ||
|| sparse_set_to_garbage                :   183        0.03s   0.001%  ------ ||
|| paw_dij_hartree                      :   384        0.05s   0.001%  ------ ||
|| pseudo_make_structure_factor         :     1        0.05s   0.001%  ------ ||
|| basis_extract_function_from_box      :  2048        0.09s   0.002%  ------ ||
|| paw_species_calc_proj_prec_mat       :     1        0.12s   0.003%  ------ ||
|| paw_dataset_init                     :     1        0.15s   0.003%  ------ ||
|| density_init_guess_real              :     1        0.17s   0.004%  ------ ||
|| ngwfs_initialise_from_radial         :     2        0.66s   0.015%  ------ ||
|| sparse_init                          :     1        0.94s   0.022%  ------ ||
|| restart_kernel_write                 :    17        1.07s   0.025%  ------ ||
|| hartree_on_grid                      :   288        1.12s   0.026%  ------ ||
|| dense_normal_eigensolve              :     1        1.24s   0.029%  ------ ||
|| ewald_calculate_energy               :     1        2.31s   0.053%  ------ ||
|| projectors_init_fftbox_recip         :   161        3.14s   0.072%  ------ ||
|| fourier_apply_box_pair               :  3040        5.02s   0.116% 561.747 ||
|| basis_copy_function_to_box           : 27328        5.89s   0.136%  ------ ||
|| augmentation_screen_dij              :   295        6.32s   0.146%  ------ ||
|| sw_init                              :     1        6.74s   0.155%  ------ ||
|| sparse_embed_hotelling_invert_embed  :    31        9.05s   0.209%  ------ ||
|| ngwf_gradient_coeffs                 :    16       12.88s   0.297%  ------ ||
|| fourier_apply_cell_backward          :  8899       14.08s   0.324%  71.036 ||
|| fourier_apply_cell_forward           :  8324       14.29s   0.329%  65.479 ||
|| cell_grid_extract_box_real           : 11580       15.84s   0.365%  ------ ||
|| sparse_trace                         :  3482       20.12s   0.464%  ------ ||
|| cell_grid_deposit_box_real           : 37040       22.80s   0.525%  ------ ||
|| paw_dij_xc                           :   384       30.01s   0.692%  ------ ||
|| aug_nonlocal_mat                     :   368       43.12s   0.994%  ------ ||
|| density_fftbox_deposit_to_cell       : 18432       46.60s   1.074%  ------ ||
|| eigenstates_pdos                     :     1       53.92s   1.243%  ------ ||
|| augmentation_density_on_grid         :   288       55.72s   1.284%  ------ ||
|| eigenstates_calculate                :     1       58.01s   1.337%  ------ ||
|| nlxc_vdw_energy                      :   574       64.16s   1.479%  ------ ||
|| function_ops_brappd_ketppd           :    64       65.32s   1.505%  ------ ||
|| hamiltonian_energy_components        :     4       67.00s   1.544%  ------ ||
|| xc_energy_potential                  :   287       74.76s   1.723%  ------ ||
|| projectors_func_ovlp_box             :    32       76.98s   1.774%  ------ ||
|| properties_calculate                 :     1      103.82s   2.393%  ------ ||
|| dense_eigensolve                     :   252      108.90s   2.510%  ------ ||
|| integrals_kinetic                    :    31      114.34s   2.635%  ------ ||
|| restart_ngwfs_tightbox_output        :    15      136.69s   3.150%  ------ ||
|| potential_apply_to_ngwf_batch        :   364      140.91s   3.247%  ------ ||
|| sparse_product                       :  3503      157.42s   3.628%  ------ ||
|| basis_dot_function_with_box          : 9.120M     246.00s   5.669%  ------ ||
|| edft_diag_ngwf_ham                   :   251      262.54s   6.051%  ------ ||
|| fourier_apply_box                    : 85984      266.92s   6.151% 980.424 ||
|| projectors_gradient_batch            :    64      299.44s   6.901%  ------ ||
|| integrals_locpot_mat_els_batch       :   364      342.75s   7.899%  ------ ||
|| density_fftbox_interpolate_multiply  : 18432      357.68s   8.243%  ------ ||
|| projectors_grad_precond_batch        :    64      441.11s  10.166%  ------ ||
|| density_batch_interp_deposit         :  1152      447.37s  10.310%  ------ ||
|| integrals_locpot_dbl_grid            :    91      485.50s  11.189%  ------ ||
|| edft_apply_smearing_operator         :   251      527.31s  12.153%  ------ ||
|| basis_add_function_to_box            : 25.59M     661.68s  15.249%  ------ ||
|| ngwf_gradient_build_batch            :    64      788.80s  18.179%  ------ ||
|| density_batch_row_sums               :  1152      982.34s  22.639%  ------ ||
|| ngwf_gradient_batch                  :    64     1044.54s  24.073%  ------ ||
|| ngwf_gradient_lnv                    :    16     1083.57s  24.972%  ------ ||
|| density_on_dbl_grid                  :   288     1441.90s  33.231%  ------ ||
|| hamiltonian_lhxc_calculate           :   282     1544.14s  35.587%  ------ ||
|| edft_calculate                       :    16     2542.35s  58.592%  ------ ||
|| ngwf_cg_optimise                     :     1     4210.38s  97.034%  ------ ||
|| total_time                           :     1     4339.08s 100.000%  ------ ||
================================================================================
Overhead of generating timer report: 
- 0 ms averaging over threads,
- 5 ms ensuring consistency across MPI ranks,
- 0 ms printing in order.

Job completed: 26-02-2020 00:48 (-0000)

