 +---------------------------------------------------------------+
 |                                                               |
 |        ####### #     # ####### ####### ####### ######         |
 |        #     # ##    # #          #    #       #     #        |
 |        #     # # #   # #          #    #       #     #        |
 |        #     # #  #  # #####      #    #####   ######         |
 |        #     # #   # # #          #    #       #              |
 |        #     # #    ## #          #    #       #              |
 |        ####### #     # #######    #    ####### #              |
 |                                                               |
 |        Linear-Scaling Ab Initio Total Energy Program          |
 |                                                               |
 |          Release for academic collaborators of ODG            |
 |                                             Version 5.3.2.12  |
 |                                                               |
 +---------------------------------------------------------------+
 |                                                               |
 |  Authors:                                                     |
 |  Jacek Dziedzic, Peter D. Haynes, Nicholas D. M. Hine,        |
 |  Arash. A. Mostofi, Mike C. Payne and Chris-Kriton Skylaris   |
 |                                                               |
 |  Contributors:                                                |
 |  J. Aarons, L. Andrinopoulos, P. W. Avraam, R. A. Bell,       |
 |  A. Bhandari, G. A. Bramley, R. J. Charlton, S. J. Clark,     |
 |  R. J. Clements, G. C. Constantinescu, F. Corsetti,           |
 |  N. Corsini, O. Dieguez, S. M. M. Dubois, K. K. B. Duff,      |
 |  J. M. Escartin, A. Greco, H. Helal, Q. O. Hill, L. P. Lee,   |
 |  J.-H. Li, E. B. Linscott, G. Moynihan, D. D. O`Regan,        |
 |  O. K. Okan, M. J. S. Phipps, C. J. Pickard,                  |
 |  J. C. A. Prentice, M. I. J. Probert, L. E. Ratcliff,         |
 |  M. Robinson, A. Ruiz Serrano, J. S. Spencer, E. W. Tait,     |
 |  G. Teobaldi, D. Turban, V. Vitale, K. A. Wilkinson,          |
 |  C. Weber, J. C. Womack, N. Yeung and T. J. Zuehlsdorff       |
 |                                                               |
 |                                   Copyright (c) 2004-2020     |
 |                                                               |
 |  Please cite:                                                 |
 |  "Introducing ONETEP: Linear-scaling density functional       |
 |   simulations on parallel computers".                         |
 |   C.-K. Skylaris, P. D. Haynes, A. A. Mostofi, M. C. Payne.   |
 |   J. Chem. Phys. 122 084119 (2005).                           |
 |                                                               |
 |          in all publications arising from your use of ONETEP. |
 |                                                               |
 +---------------------------------------------------------------+
 |                                                               |
 |   ONETEP is based on developments described in the following  |
 |   publications:                                               |
 |                                                               |
 |  "Nonorthogonal generalized Wannier function pseudopotential  |
 |   plane-wave method".                                         |
 |   C.-K. Skylaris, A. A. Mostofi, P. D. Haynes, O. Dieguez,    |
 |   M. C. Payne.                                                |
 |   Phys. Rev. B 66 035119 (2002).                              |
 |                                                               |
 |  "Preconditioned iterative minimization for linear-scaling    |
 |   electronic structure calculations".                         |
 |   A. A. Mostofi, P. D. Haynes, C.-K. Skylaris, M. C. Payne.   |
 |   J. Chem. Phys. 119(17), pp.8842-8848 (2003).                |
 |                                                               |
 |  "Total-energy calculations on a real space grid with         |
 |   localized functions and a plane-wave basis".                |
 |   A. A. Mostofi, C.-K. Skylaris, P. D. Haynes, M. C. Payne.   |
 |   Comput. Phys. Commun. 147, pp.788-802 (2002).               |
 |                                                               |
 |  "Accurate kinetic energy evaluation in electronic structure  |
 |   calculations with localized functions on real space grids"  |
 |   C.-K. Skylaris, A. A. Mostofi, P. D. Haynes, C. J. Pickard, |
 |   M. C. Payne.                                                |
 |   Comput. Phys. Commun. 140, pp.315-322 (2001).               |
 |                                                               |
 |  "Accurate ionic forces and geometry optimization in linear-  |
 |   scaling density-functional theory with local orbitals"      |
 |   N. D. M. Hine, M. Robinson, P. D. Haynes, C.-K. Skylaris,   |
 |   M. C. Payne, and A. A. Mostofi.                             |
 |   Phys. Rev. B 83 195102 (2011).                              |
 |                                                               |
 +---------------------------------------------------------------+

Job started: 26-02-2020 00:08 (-0000)
 
Reading parameters from file "3.2466752_GO_manual_4x64graphite.dat" ...

WARNING: "cutoff_energy" not specified, but "psinc_spacing" specified.
         Using the latter to set the KE cutoff energy to  732.32021eV,
         thus *overriding* the default.

... done

If your calculation crashes here, before "Checking processes and threads..."
is displayed, then your stack size is insufficient.
If so, use "ulimit -s unlimited" at runtime.
You can disable this check with "check_stack_size F".

Checking processes and threads...
   Determining the default number of threads...
      No default threads set at compilation time: defaulting to 1.
      OpenMP library call suggests 4 threads.
      Hybrid MPI-OpenMP compilation detected.
      Number of MPI processes > 1.
      OMP_NUM_THREADS environment variable present and
      its value matches the one obtained from the OpenMP library call.
      Using this value as default.
      Default threads: 4
      Default applies to threads_max and threads_num_fftboxes.
      Settings in the input file override this default.
   ... done

   Running with 40 MPI processes.
   There are 10 MPI processes running on the same node as the root process.
   Each MPI process is using: 
               1 threads for simulation cell FFTs.
               1 threads for parallel FFT box operations.
               4 threads for loops over batched FFT box operations.
               4 threads in other parallel regions.
... done

Basic input checks...
Resetting ngwf_cg_rotate to TRUE for EDFT calculations
... done

Reading geometry and species blocks from file "3.2466752_GO_manual_4x64graphite.dat" ...
    
  PSINC grid spacing along a1 set to   0.511215680000a0 from input file.
  PSINC grid spacing along a2 set to   0.531284090000a0 from input file.
  PSINC grid spacing along a3 set to   0.507052850000a0 from input file.
  Number of PPD points along a3 set to 1.  This is 
  the default value, it may have been provided also in the input file.
... done
 Writing xyz coordinates to file "3.2466752_GO_manual_4x64graphite.xyz" ... done


--------------------------------------------------------------------------------
---------------------------------- INPUT FILE ----------------------------------
--------------------------------------------------------------------------------

task : singlepoint                                                              
do_properties : true                                                            
dx_format T                                                                     
edft T                                                                          
output_detail VERBOSE                                                           
write_xyz T                                                                     
xc_functional VDWDF                                                             
PSINC_SPACING 0.51121568 0.53128409 0.50705285                                  
paw T                                                                           
pdos_max_l = 2                                                                  
dos_smear  0.1 eV                                                               
popn_calculate T                                                                
PDOS_PSEUDOATOMIC T                                                             
PDOS_REDUCE_SWS F                                                               
PDOS_CONSTRUCT_BASIS F                                                          
PDOS_LOWDIN T                                                                   
PDOS_ORTH_ATOM_BLOCKS F                                                         
PDOS_LCAO_OPTIMIZE F                                                            
pdos_optados_output T                                                           
homo_plot 0                                                                     
lumo_plot 0                                                                     
homo_dens_plot -1                                                               
lumo_dens_plot -1                                                               
%BLOCK SPECIES                                                                  
C C 6 4 9.0                                                                     
%ENDBLOCK SPECIES                                                               
%BLOCK SPECIES_POT                                                              
C "~/pp/paw/c_pbe_abinit.paw"                                                   
%ENDBLOCK SPECIES_POT                                                           
%BLOCK SPECIES_ATOMIC_SET                                                       
C "SOLVE conf=2s2 2p2"                                                          
%ENDBLOCK SPECIES_ATOMIC_SET                                                    
%BLOCK LATTICE_CART                                                             
32.21  0.00  0.00                                                               
0.00 18.59  0.00                                                                
0.00  0.00 61.35                                                                
%ENDBLOCK LATTICE_CART                                                          
%BLOCK POSITIONS_ABS                                                            
C  0.00  0.00  3.07                                                             
C  0.00  0.00 15.34                                                             
C  0.00  0.00 27.61                                                             
C  0.00  0.00 39.88                                                             
C  0.00  0.00 52.15                                                             
C  0.00  4.65  3.07                                                             
C  0.00  4.65 15.34                                                             
C  0.00  4.65 27.61                                                             
C  0.00  4.65 39.88                                                             
C  0.00  4.65 52.15                                                             
C  4.03  2.32  3.07                                                             
C  4.03  2.32 15.34                                                             
C  4.03  2.32 27.61                                                             
C  4.03  2.32 39.88                                                             
C  4.03  2.32 52.15                                                             
C  8.05  0.00  3.07                                                             
C  8.05  0.00 15.34                                                             
C  8.05  0.00 27.61                                                             
C  8.05  0.00 39.88                                                             
C  8.05  0.00 52.15                                                             
C  0.00  9.30  3.07                                                             
C  0.00  9.30 15.34                                                             
C  0.00  9.30 27.61                                                             
C  0.00  9.30 39.88                                                             
C  0.00  9.30 52.15                                                             
C  4.03  6.97  3.07                                                             
C  4.03  6.97 15.34                                                             
C  4.03  6.97 27.61                                                             
C  4.03  6.97 39.88                                                             
C  4.03  6.97 52.15                                                             
C  8.05  4.65  3.07                                                             
C  8.05  4.65 15.34                                                             
C  8.05  4.65 27.61                                                             
C  8.05  4.65 39.88                                                             
C  8.05  4.65 52.15                                                             
C 12.08  2.32  3.07                                                             
C 12.08  2.32 15.34                                                             
C 12.08  2.32 27.61                                                             
C 12.08  2.32 39.88                                                             
C 12.08  2.32 52.15                                                             
C 16.10  0.00  3.07                                                             
C 16.10  0.00 15.34                                                             
C 16.10  0.00 27.61                                                             
C 16.10  0.00 39.88                                                             
C 16.10  0.00 52.15                                                             
C  0.00 13.95  3.07                                                             
C  0.00 13.95 15.34                                                             
C  0.00 13.95 27.61                                                             
C  0.00 13.95 39.88                                                             
C  0.00 13.95 52.15                                                             
C  4.03 11.62  3.07                                                             
C  4.03 11.62 15.34                                                             
C  4.03 11.62 27.61                                                             
C  4.03 11.62 39.88                                                             
C  4.03 11.62 52.15                                                             
C  8.05  9.30  3.07                                                             
C  8.05  9.30 15.34                                                             
C  8.05  9.30 27.61                                                             
C  8.05  9.30 39.88                                                             
C  8.05  9.30 52.15                                                             
C 12.08  6.97  3.07                                                             
C 12.08  6.97 15.34                                                             
C 12.08  6.97 27.61                                                             
C 12.08  6.97 39.88                                                             
C 12.08  6.97 52.15                                                             
C 16.10  4.65  3.07                                                             
C 16.10  4.65 15.34                                                             
C 16.10  4.65 27.61                                                             
C 16.10  4.65 39.88                                                             
C 16.10  4.65 52.15                                                             
C 20.13  2.32  3.07                                                             
C 20.13  2.32 15.34                                                             
C 20.13  2.32 27.61                                                             
C 20.13  2.32 39.88                                                             
C 20.13  2.32 52.15                                                             
C 24.16  0.00  3.07                                                             
C 24.16  0.00 15.34                                                             
C 24.16  0.00 27.61                                                             
C 24.16  0.00 39.88                                                             
C 24.16  0.00 52.15                                                             
C  4.03 16.27  3.07                                                             
C  4.03 16.27 15.34                                                             
C  4.03 16.27 27.61                                                             
C  4.03 16.27 39.88                                                             
C  4.03 16.27 52.15                                                             
C  8.05 13.95  3.07                                                             
C  8.05 13.95 15.34                                                             
C  8.05 13.95 27.61                                                             
C  8.05 13.95 39.88                                                             
C  8.05 13.95 52.15                                                             
C 12.08 11.62  3.07                                                             
C 12.08 11.62 15.34                                                             
C 12.08 11.62 27.61                                                             
C 12.08 11.62 39.88                                                             
C 12.08 11.62 52.15                                                             
C 16.10  9.30  3.07                                                             
C 16.10  9.30 15.34                                                             
C 16.10  9.30 27.61                                                             
C 16.10  9.30 39.88                                                             
C 16.10  9.30 52.15                                                             
C 20.13  6.97  3.07                                                             
C 20.13  6.97 15.34                                                             
C 20.13  6.97 27.61                                                             
C 20.13  6.97 39.88                                                             
C 20.13  6.97 52.15                                                             
C 24.16  4.65  3.07                                                             
C 24.16  4.65 15.34                                                             
C 24.16  4.65 27.61                                                             
C 24.16  4.65 39.88                                                             
C 24.16  4.65 52.15                                                             
C 28.18  2.32  3.07                                                             
C 28.18  2.32 15.34                                                             
C 28.18  2.32 27.61                                                             
C 28.18  2.32 39.88                                                             
C 28.18  2.32 52.15                                                             
C 12.08 16.27  3.07                                                             
C 12.08 16.27 15.34                                                             
C 12.08 16.27 27.61                                                             
C 12.08 16.27 39.88                                                             
C 12.08 16.27 52.15                                                             
C 16.10 13.95  3.07                                                             
C 16.10 13.95 15.34                                                             
C 16.10 13.95 27.61                                                             
C 16.10 13.95 39.88                                                             
C 16.10 13.95 52.15                                                             
C 20.13 11.62  3.07                                                             
C 20.13 11.62 15.34                                                             
C 20.13 11.62 27.61                                                             
C 20.13 11.62 39.88                                                             
C 20.13 11.62 52.15                                                             
C 24.16  9.30  3.07                                                             
C 24.16  9.30 15.34                                                             
C 24.16  9.30 27.61                                                             
C 24.16  9.30 39.88                                                             
C 24.16  9.30 52.15                                                             
C 28.18  6.97  3.07                                                             
C 28.18  6.97 15.34                                                             
C 28.18  6.97 27.61                                                             
C 28.18  6.97 39.88                                                             
C 28.18  6.97 52.15                                                             
C 20.13 16.27  3.07                                                             
C 20.13 16.27 15.34                                                             
C 20.13 16.27 27.61                                                             
C 20.13 16.27 39.88                                                             
C 20.13 16.27 52.15                                                             
C 24.16 13.95  3.07                                                             
C 24.16 13.95 15.34                                                             
C 24.16 13.95 27.61                                                             
C 24.16 13.95 39.88                                                             
C 24.16 13.95 52.15                                                             
C 28.18 11.62  3.07                                                             
C 28.18 11.62 15.34                                                             
C 28.18 11.62 27.61                                                             
C 28.18 11.62 39.88                                                             
C 28.18 11.62 52.15                                                             
C 28.18 16.27  3.07                                                             
C 28.18 16.27 15.34                                                             
C 28.18 16.27 27.61                                                             
C 28.18 16.27 39.88                                                             
C 28.18 16.27 52.15                                                             
C  0.00  0.00  9.20                                                             
C  0.00  0.00 21.47                                                             
C  0.00  0.00 33.74                                                             
C  0.00  0.00 46.02                                                             
C  0.00  0.00 58.29                                                             
C  0.00  4.65  9.20                                                             
C  0.00  4.65 21.47                                                             
C  0.00  4.65 33.74                                                             
C  0.00  4.65 46.02                                                             
C  0.00  4.65 58.29                                                             
C  4.03  2.32  9.20                                                             
C  4.03  2.32 21.47                                                             
C  4.03  2.32 33.74                                                             
C  4.03  2.32 46.02                                                             
C  4.03  2.32 58.29                                                             
C  8.05  0.00  9.20                                                             
C  8.05  0.00 21.47                                                             
C  8.05  0.00 33.74                                                             
C  8.05  0.00 46.02                                                             
C  8.05  0.00 58.29                                                             
C  0.00  9.30  9.20                                                             
C  0.00  9.30 21.47                                                             
C  0.00  9.30 33.74                                                             
C  0.00  9.30 46.02                                                             
C  0.00  9.30 58.29                                                             
C  4.03  6.97  9.20                                                             
C  4.03  6.97 21.47                                                             
C  4.03  6.97 33.74                                                             
C  4.03  6.97 46.02                                                             
C  4.03  6.97 58.29                                                             
C  8.05  4.65  9.20                                                             
C  8.05  4.65 21.47                                                             
C  8.05  4.65 33.74                                                             
C  8.05  4.65 46.02                                                             
C  8.05  4.65 58.29                                                             
C 12.08  2.32  9.20                                                             
C 12.08  2.32 21.47                                                             
C 12.08  2.32 33.74                                                             
C 12.08  2.32 46.02                                                             
C 12.08  2.32 58.29                                                             
C 16.10  0.00  9.20                                                             
C 16.10  0.00 21.47                                                             
C 16.10  0.00 33.74                                                             
C 16.10  0.00 46.02                                                             
C 16.10  0.00 58.29                                                             
C  0.00 13.95  9.20                                                             
C  0.00 13.95 21.47                                                             
C  0.00 13.95 33.74                                                             
C  0.00 13.95 46.02                                                             
C  0.00 13.95 58.29                                                             
C  4.03 11.62  9.20                                                             
C  4.03 11.62 21.47                                                             
C  4.03 11.62 33.74                                                             
C  4.03 11.62 46.02                                                             
C  4.03 11.62 58.29                                                             
C  8.05  9.30  9.20                                                             
C  8.05  9.30 21.47                                                             
C  8.05  9.30 33.74                                                             
C  8.05  9.30 46.02                                                             
C  8.05  9.30 58.29                                                             
C 12.08  6.97  9.20                                                             
C 12.08  6.97 21.47                                                             
C 12.08  6.97 33.74                                                             
C 12.08  6.97 46.02                                                             
C 12.08  6.97 58.29                                                             
C 16.10  4.65  9.20                                                             
C 16.10  4.65 21.47                                                             
C 16.10  4.65 33.74                                                             
C 16.10  4.65 46.02                                                             
C 16.10  4.65 58.29                                                             
C 20.13  2.32  9.20                                                             
C 20.13  2.32 21.47                                                             
C 20.13  2.32 33.74                                                             
C 20.13  2.32 46.02                                                             
C 20.13  2.32 58.29                                                             
C 24.16  0.00  9.20                                                             
C 24.16  0.00 21.47                                                             
C 24.16  0.00 33.74                                                             
C 24.16  0.00 46.02                                                             
C 24.16  0.00 58.29                                                             
C  4.03 16.27  9.20                                                             
C  4.03 16.27 21.47                                                             
C  4.03 16.27 33.74                                                             
C  4.03 16.27 46.02                                                             
C  4.03 16.27 58.29                                                             
C  8.05 13.95  9.20                                                             
C  8.05 13.95 21.47                                                             
C  8.05 13.95 33.74                                                             
C  8.05 13.95 46.02                                                             
C  8.05 13.95 58.29                                                             
C 12.08 11.62  9.20                                                             
C 12.08 11.62 21.47                                                             
C 12.08 11.62 33.74                                                             
C 12.08 11.62 46.02                                                             
C 12.08 11.62 58.29                                                             
C 16.10  9.30  9.20                                                             
C 16.10  9.30 21.47                                                             
C 16.10  9.30 33.74                                                             
C 16.10  9.30 46.02                                                             
C 16.10  9.30 58.29                                                             
C 20.13  6.97  9.20                                                             
C 20.13  6.97 21.47                                                             
C 20.13  6.97 33.74                                                             
C 20.13  6.97 46.02                                                             
C 20.13  6.97 58.29                                                             
C 24.16  4.65  9.20                                                             
C 24.16  4.65 21.47                                                             
C 24.16  4.65 33.74                                                             
C 24.16  4.65 46.02                                                             
C 24.16  4.65 58.29                                                             
C 28.18  2.32  9.20                                                             
C 28.18  2.32 21.47                                                             
C 28.18  2.32 33.74                                                             
C 28.18  2.32 46.02                                                             
C 28.18  2.32 58.29                                                             
C 12.08 16.27  9.20                                                             
C 12.08 16.27 21.47                                                             
C 12.08 16.27 33.74                                                             
C 12.08 16.27 46.02                                                             
C 12.08 16.27 58.29                                                             
C 16.10 13.95  9.20                                                             
C 16.10 13.95 21.47                                                             
C 16.10 13.95 33.74                                                             
C 16.10 13.95 46.02                                                             
C 16.10 13.95 58.29                                                             
C 20.13 11.62  9.20                                                             
C 20.13 11.62 21.47                                                             
C 20.13 11.62 33.74                                                             
C 20.13 11.62 46.02                                                             
C 20.13 11.62 58.29                                                             
C 24.16  9.30  9.20                                                             
C 24.16  9.30 21.47                                                             
C 24.16  9.30 33.74                                                             
C 24.16  9.30 46.02                                                             
C 24.16  9.30 58.29                                                             
C 28.18  6.97  9.20                                                             
C 28.18  6.97 21.47                                                             
C 28.18  6.97 33.74                                                             
C 28.18  6.97 46.02                                                             
C 28.18  6.97 58.29                                                             
C 20.13 16.27  9.20                                                             
C 20.13 16.27 21.47                                                             
C 20.13 16.27 33.74                                                             
C 20.13 16.27 46.02                                                             
C 20.13 16.27 58.29                                                             
C 24.16 13.95  9.20                                                             
C 24.16 13.95 21.47                                                             
C 24.16 13.95 33.74                                                             
C 24.16 13.95 46.02                                                             
C 24.16 13.95 58.29                                                             
C 28.18 11.62  9.20                                                             
C 28.18 11.62 21.47                                                             
C 28.18 11.62 33.74                                                             
C 28.18 11.62 46.02                                                             
C 28.18 11.62 58.29                                                             
C 28.18 16.27  9.20                                                             
C 28.18 16.27 21.47                                                             
C 28.18 16.27 33.74                                                             
C 28.18 16.27 46.02                                                             
C 28.18 16.27 58.29                                                             
C  1.34  2.32  3.07                                                             
C  1.34  2.32 15.34                                                             
C  1.34  2.32 27.61                                                             
C  1.34  2.32 39.88                                                             
C  1.34  2.32 52.15                                                             
C  5.37  0.00  3.07                                                             
C  5.37  0.00 15.34                                                             
C  5.37  0.00 27.61                                                             
C  5.37  0.00 39.88                                                             
C  5.37  0.00 52.15                                                             
C  1.34  6.97  3.07                                                             
C  1.34  6.97 15.34                                                             
C  1.34  6.97 27.61                                                             
C  1.34  6.97 39.88                                                             
C  1.34  6.97 52.15                                                             
C  5.37  4.65  3.07                                                             
C  5.37  4.65 15.34                                                             
C  5.37  4.65 27.61                                                             
C  5.37  4.65 39.88                                                             
C  5.37  4.65 52.15                                                             
C  9.39  2.32  3.07                                                             
C  9.39  2.32 15.34                                                             
C  9.39  2.32 27.61                                                             
C  9.39  2.32 39.88                                                             
C  9.39  2.32 52.15                                                             
C 13.42  0.00  3.07                                                             
C 13.42  0.00 15.34                                                             
C 13.42  0.00 27.61                                                             
C 13.42  0.00 39.88                                                             
C 13.42  0.00 52.15                                                             
C  1.34 11.62  3.07                                                             
C  1.34 11.62 15.34                                                             
C  1.34 11.62 27.61                                                             
C  1.34 11.62 39.88                                                             
C  1.34 11.62 52.15                                                             
C  5.37  9.30  3.07                                                             
C  5.37  9.30 15.34                                                             
C  5.37  9.30 27.61                                                             
C  5.37  9.30 39.88                                                             
C  5.37  9.30 52.15                                                             
C  9.39  6.97  3.07                                                             
C  9.39  6.97 15.34                                                             
C  9.39  6.97 27.61                                                             
C  9.39  6.97 39.88                                                             
C  9.39  6.97 52.15                                                             
C 13.42  4.65  3.07                                                             
C 13.42  4.65 15.34                                                             
C 13.42  4.65 27.61                                                             
C 13.42  4.65 39.88                                                             
C 13.42  4.65 52.15                                                             
C 17.45  2.32  3.07                                                             
C 17.45  2.32 15.34                                                             
C 17.45  2.32 27.61                                                             
C 17.45  2.32 39.88                                                             
C 17.45  2.32 52.15                                                             
C 21.47  0.00  3.07                                                             
C 21.47  0.00 15.34                                                             
C 21.47  0.00 27.61                                                             
C 21.47  0.00 39.88                                                             
C 21.47  0.00 52.15                                                             
C  1.34 16.27  3.07                                                             
C  1.34 16.27 15.34                                                             
C  1.34 16.27 27.61                                                             
C  1.34 16.27 39.88                                                             
C  1.34 16.27 52.15                                                             
C  5.37 13.95  3.07                                                             
C  5.37 13.95 15.34                                                             
C  5.37 13.95 27.61                                                             
C  5.37 13.95 39.88                                                             
C  5.37 13.95 52.15                                                             
C  9.39 11.62  3.07                                                             
C  9.39 11.62 15.34                                                             
C  9.39 11.62 27.61                                                             
C  9.39 11.62 39.88                                                             
C  9.39 11.62 52.15                                                             
C 13.42  9.30  3.07                                                             
C 13.42  9.30 15.34                                                             
C 13.42  9.30 27.61                                                             
C 13.42  9.30 39.88                                                             
C 13.42  9.30 52.15                                                             
C 17.45  6.97  3.07                                                             
C 17.45  6.97 15.34                                                             
C 17.45  6.97 27.61                                                             
C 17.45  6.97 39.88                                                             
C 17.45  6.97 52.15                                                             
C 21.47  4.65  3.07                                                             
C 21.47  4.65 15.34                                                             
C 21.47  4.65 27.61                                                             
C 21.47  4.65 39.88                                                             
C 21.47  4.65 52.15                                                             
C 25.50  2.32  3.07                                                             
C 25.50  2.32 15.34                                                             
C 25.50  2.32 27.61                                                             
C 25.50  2.32 39.88                                                             
C 25.50  2.32 52.15                                                             
C 29.52  0.00  3.07                                                             
C 29.52  0.00 15.34                                                             
C 29.52  0.00 27.61                                                             
C 29.52  0.00 39.88                                                             
C 29.52  0.00 52.15                                                             
C  9.39 16.27  3.07                                                             
C  9.39 16.27 15.34                                                             
C  9.39 16.27 27.61                                                             
C  9.39 16.27 39.88                                                             
C  9.39 16.27 52.15                                                             
C 13.42 13.95  3.07                                                             
C 13.42 13.95 15.34                                                             
C 13.42 13.95 27.61                                                             
C 13.42 13.95 39.88                                                             
C 13.42 13.95 52.15                                                             
C 17.45 11.62  3.07                                                             
C 17.45 11.62 15.34                                                             
C 17.45 11.62 27.61                                                             
C 17.45 11.62 39.88                                                             
C 17.45 11.62 52.15                                                             
C 21.47  9.30  3.07                                                             
C 21.47  9.30 15.34                                                             
C 21.47  9.30 27.61                                                             
C 21.47  9.30 39.88                                                             
C 21.47  9.30 52.15                                                             
C 25.50  6.97  3.07                                                             
C 25.50  6.97 15.34                                                             
C 25.50  6.97 27.61                                                             
C 25.50  6.97 39.88                                                             
C 25.50  6.97 52.15                                                             
C 29.52  4.65  3.07                                                             
C 29.52  4.65 15.34                                                             
C 29.52  4.65 27.61                                                             
C 29.52  4.65 39.88                                                             
C 29.52  4.65 52.15                                                             
C 17.45 16.27  3.07                                                             
C 17.45 16.27 15.34                                                             
C 17.45 16.27 27.61                                                             
C 17.45 16.27 39.88                                                             
C 17.45 16.27 52.15                                                             
C 21.47 13.95  3.07                                                             
C 21.47 13.95 15.34                                                             
C 21.47 13.95 27.61                                                             
C 21.47 13.95 39.88                                                             
C 21.47 13.95 52.15                                                             
C 25.50 11.62  3.07                                                             
C 25.50 11.62 15.34                                                             
C 25.50 11.62 27.61                                                             
C 25.50 11.62 39.88                                                             
C 25.50 11.62 52.15                                                             
C 29.52  9.30  3.07                                                             
C 29.52  9.30 15.34                                                             
C 29.52  9.30 27.61                                                             
C 29.52  9.30 39.88                                                             
C 29.52  9.30 52.15                                                             
C 25.50 16.27  3.07                                                             
C 25.50 16.27 15.34                                                             
C 25.50 16.27 27.61                                                             
C 25.50 16.27 39.88                                                             
C 25.50 16.27 52.15                                                             
C 29.52 13.95  3.07                                                             
C 29.52 13.95 15.34                                                             
C 29.52 13.95 27.61                                                             
C 29.52 13.95 39.88                                                             
C 29.52 13.95 52.15                                                             
C  2.68  0.00  9.20                                                             
C  2.68  0.00 21.47                                                             
C  2.68  0.00 33.74                                                             
C  2.68  0.00 46.02                                                             
C  2.68  0.00 58.29                                                             
C  2.68  4.65  9.20                                                             
C  2.68  4.65 21.47                                                             
C  2.68  4.65 33.74                                                             
C  2.68  4.65 46.02                                                             
C  2.68  4.65 58.29                                                             
C  6.71  2.32  9.20                                                             
C  6.71  2.32 21.47                                                             
C  6.71  2.32 33.74                                                             
C  6.71  2.32 46.02                                                             
C  6.71  2.32 58.29                                                             
C 10.74  0.00  9.20                                                             
C 10.74  0.00 21.47                                                             
C 10.74  0.00 33.74                                                             
C 10.74  0.00 46.02                                                             
C 10.74  0.00 58.29                                                             
C  2.68  9.30  9.20                                                             
C  2.68  9.30 21.47                                                             
C  2.68  9.30 33.74                                                             
C  2.68  9.30 46.02                                                             
C  2.68  9.30 58.29                                                             
C  6.71  6.97  9.20                                                             
C  6.71  6.97 21.47                                                             
C  6.71  6.97 33.74                                                             
C  6.71  6.97 46.02                                                             
C  6.71  6.97 58.29                                                             
C 10.74  4.65  9.20                                                             
C 10.74  4.65 21.47                                                             
C 10.74  4.65 33.74                                                             
C 10.74  4.65 46.02                                                             
C 10.74  4.65 58.29                                                             
C 14.76  2.32  9.20                                                             
C 14.76  2.32 21.47                                                             
C 14.76  2.32 33.74                                                             
C 14.76  2.32 46.02                                                             
C 14.76  2.32 58.29                                                             
C 18.79  0.00  9.20                                                             
C 18.79  0.00 21.47                                                             
C 18.79  0.00 33.74                                                             
C 18.79  0.00 46.02                                                             
C 18.79  0.00 58.29                                                             
C  2.68 13.95  9.20                                                             
C  2.68 13.95 21.47                                                             
C  2.68 13.95 33.74                                                             
C  2.68 13.95 46.02                                                             
C  2.68 13.95 58.29                                                             
C  6.71 11.62  9.20                                                             
C  6.71 11.62 21.47                                                             
C  6.71 11.62 33.74                                                             
C  6.71 11.62 46.02                                                             
C  6.71 11.62 58.29                                                             
C 10.74  9.30  9.20                                                             
C 10.74  9.30 21.47                                                             
C 10.74  9.30 33.74                                                             
C 10.74  9.30 46.02                                                             
C 10.74  9.30 58.29                                                             
C 14.76  6.97  9.20                                                             
C 14.76  6.97 21.47                                                             
C 14.76  6.97 33.74                                                             
C 14.76  6.97 46.02                                                             
C 14.76  6.97 58.29                                                             
C 18.79  4.65  9.20                                                             
C 18.79  4.65 21.47                                                             
C 18.79  4.65 33.74                                                             
C 18.79  4.65 46.02                                                             
C 18.79  4.65 58.29                                                             
C 22.81  2.32  9.20                                                             
C 22.81  2.32 21.47                                                             
C 22.81  2.32 33.74                                                             
C 22.81  2.32 46.02                                                             
C 22.81  2.32 58.29                                                             
C 26.84  0.00  9.20                                                             
C 26.84  0.00 21.47                                                             
C 26.84  0.00 33.74                                                             
C 26.84  0.00 46.02                                                             
C 26.84  0.00 58.29                                                             
C  6.71 16.27  9.20                                                             
C  6.71 16.27 21.47                                                             
C  6.71 16.27 33.74                                                             
C  6.71 16.27 46.02                                                             
C  6.71 16.27 58.29                                                             
C 10.74 13.95  9.20                                                             
C 10.74 13.95 21.47                                                             
C 10.74 13.95 33.74                                                             
C 10.74 13.95 46.02                                                             
C 10.74 13.95 58.29                                                             
C 14.76 11.62  9.20                                                             
C 14.76 11.62 21.47                                                             
C 14.76 11.62 33.74                                                             
C 14.76 11.62 46.02                                                             
C 14.76 11.62 58.29                                                             
C 18.79  9.30  9.20                                                             
C 18.79  9.30 21.47                                                             
C 18.79  9.30 33.74                                                             
C 18.79  9.30 46.02                                                             
C 18.79  9.30 58.29                                                             
C 22.81  6.97  9.20                                                             
C 22.81  6.97 21.47                                                             
C 22.81  6.97 33.74                                                             
C 22.81  6.97 46.02                                                             
C 22.81  6.97 58.29                                                             
C 26.84  4.65  9.20                                                             
C 26.84  4.65 21.47                                                             
C 26.84  4.65 33.74                                                             
C 26.84  4.65 46.02                                                             
C 26.84  4.65 58.29                                                             
C 30.86  2.32  9.20                                                             
C 30.86  2.32 21.47                                                             
C 30.86  2.32 33.74                                                             
C 30.86  2.32 46.02                                                             
C 30.86  2.32 58.29                                                             
C 14.76 16.27  9.20                                                             
C 14.76 16.27 21.47                                                             
C 14.76 16.27 33.74                                                             
C 14.76 16.27 46.02                                                             
C 14.76 16.27 58.29                                                             
C 18.79 13.95  9.20                                                             
C 18.79 13.95 21.47                                                             
C 18.79 13.95 33.74                                                             
C 18.79 13.95 46.02                                                             
C 18.79 13.95 58.29                                                             
C 22.81 11.62  9.20                                                             
C 22.81 11.62 21.47                                                             
C 22.81 11.62 33.74                                                             
C 22.81 11.62 46.02                                                             
C 22.81 11.62 58.29                                                             
C 26.84  9.30  9.20                                                             
C 26.84  9.30 21.47                                                             
C 26.84  9.30 33.74                                                             
C 26.84  9.30 46.02                                                             
C 26.84  9.30 58.29                                                             
C 30.86  6.97  9.20                                                             
C 30.86  6.97 21.47                                                             
C 30.86  6.97 33.74                                                             
C 30.86  6.97 46.02                                                             
C 30.86  6.97 58.29                                                             
C 22.81 16.27  9.20                                                             
C 22.81 16.27 21.47                                                             
C 22.81 16.27 33.74                                                             
C 22.81 16.27 46.02                                                             
C 22.81 16.27 58.29                                                             
C 26.84 13.95  9.20                                                             
C 26.84 13.95 21.47                                                             
C 26.84 13.95 33.74                                                             
C 26.84 13.95 46.02                                                             
C 26.84 13.95 58.29                                                             
C 30.86 11.62  9.20                                                             
C 30.86 11.62 21.47                                                             
C 30.86 11.62 33.74                                                             
C 30.86 11.62 46.02                                                             
C 30.86 11.62 58.29                                                             
C 30.86 16.27  9.20                                                             
C 30.86 16.27 21.47                                                             
C 30.86 16.27 33.74                                                             
C 30.86 16.27 46.02                                                             
C 30.86 16.27 58.29                                                             
%ENDBLOCK POSITIONS_ABS                                                         

--------------------------------------------------------------------------------
-------------------------------- END INPUT FILE --------------------------------
--------------------------------------------------------------------------------


 
<<<<<<<<<<<<<<<<<<<<<<<<<<<<<<<<< Full system >>>>>>>>>>>>>>>>>>>>>>>>>>>>>>>>>>
<<<<<<<<<<<<<<<<<<<<<<<<<<< PAW Dataset information >>>>>>>>>>>>>>>>>>>>>>>>>>>
File: ~/pp/paw/c_pbe_abinit.paw; rc = 1.25 bohr; shape type =  3; rshape = 1.25 bohr;
  Atomic number:  6;  ionic charge:  4.000000
    Partial Wave 1: l = 0
    Partial Wave 2: l = 0
    Partial Wave 3: l = 1
    Partial Wave 4: l = 1
  Core charge supplied for Nonlinear Core Corrections
<<<<<<<<<<<<<<<<<<<<<<<<<<<<<<<<<<<<<<< >>>>>>>>>>>>>>>>>>>>>>>>>>>>>>>>>>>>>>>

-------------------------- Atom counting information ---------------------------
Symbol    Natoms    Nngwfs    Nprojs
  C        640      2560      5120
.......   ......    ......    ......
Totals:    640      2560      5120
--------------------------------------------------------------------------------

=============================== PSINC grid sizes ===============================
                      Simulation cell:   63 x  35 x 121
                              FFT-box:   63 x  35 x 117
                                  PPD:    7 x   5 x   1
Grid space d1=  0.511269841270a0 (KE cutoff=  29.06054Eh = 790.77748eV)
Grid space d2=  0.531142857143a0 (KE cutoff=  26.92659Eh = 732.70972eV)
Grid space d3=  0.507024793388a0 (KE cutoff=  29.54919Eh = 804.07442eV)
================================================================================
  
WARNING in cell_grid_distribute:
Average of less than one 23-slab per node, so workload cannot be
equally balanced between nodes.

********************* Fourier parallelisation information **********************
       Coarse grid (whole simulation cell) dimensions:     63    35   121
          Real-space ('12') slabs/node (min max mean):      3     4     3
         Recip-space ('23') slabs/node (min max mean):      0     1     0
********************************************************************************

********************* Fourier parallelisation information **********************
       Double grid (whole simulation cell) dimensions:    126    70   242
          Real-space ('12') slabs/node (min max mean):      6     7     6
         Recip-space ('23') slabs/node (min max mean):      1     2     1
********************************************************************************

Atom SCF Calculation for C  : Z (AE atom) =   6 : Z (PS atom) =   4
Config String: 2s2 2p2
Orbitals (num,occ):  2     2.00 2.00
Orbitals   (num,l):  2        0    1
Real-space Grid (nr,dr,rmax): 1293    0.0069659443    9.0000000000
Spherical Bessel Basis (nsws,lmax,cutoff):   37    2  161.4736382572
Confining potential (l,width,scale):  0    3.0000000000  100.0000000000
Confining potential (l,width,scale):  1    3.0000000000  100.0000000000
  1         -5.4966243538   -1.3415066196    4.5135257941   -1.6613421942
  2         -5.4660395227   -1.4172174419    4.4326892861   -1.6365362708
  3         -5.4759582348   -1.4337557188    4.4144498970   -1.6324663609
  4         -5.4843804720   -1.4365219414    4.4114201180   -1.6322033818
  5         -5.4882713954   -1.4381734139    4.4096331461   -1.6320227940
  6         -5.4902132675   -1.4390636620    4.4086785626   -1.6319270645
  7         -5.4912093711   -1.4395303631    4.4081823351   -1.6318789226
  8         -5.4917264140   -1.4397726342    4.4079268833   -1.6318551036
  9         -5.4919964206   -1.4398979410    4.4077958777   -1.6318434025
 10         -5.4921379132   -1.4399626875    4.4077287721   -1.6318376788
 11         -5.4922122245   -1.4399961532    4.4076943935   -1.6318348878
 12         -5.4922513136   -1.4400134684    4.4076767658   -1.6318335308
 13         -5.4922719001   -1.4400224400    4.4076677156   -1.6318328728
 14         -5.4922827535   -1.4400270959    4.4076630621   -1.6318325547
 15         -5.4922884809   -1.4400295164    4.4076606653   -1.6318324014
 16         -5.4922915059   -1.4400307770    4.4076594286   -1.6318323279
 17         -5.4922931051   -1.4400314347    4.4076587894   -1.6318322927
 18         -5.4922939512   -1.4400317785    4.4076584583   -1.6318322760
 19         -5.4922943993   -1.4400319585    4.4076582865   -1.6318322681
 20         -5.4922946368   -1.4400320529    4.4076581972   -1.6318322644
 21         -5.4922947627   -1.4400321025    4.4076581507   -1.6318322627
 22         -5.4922948296   -1.4400321287    4.4076581265   -1.6318322619
Atom SCF converged after  22 iterations to a total energy of     -5.49229483

Determining parallel strategy ...
... using space-filling curve
... NGWF load balancing: max     64;  min     64;  average     64
... Projector load balancing: max    128;  min    128;  average    128
... done
Calculating Ewald energy ...
              Ewald: real-space energy =    9518.425052
        Ewald: reciprocal-space energy =       0.057844
         Ewald: (sum_charge)**2 Energy =   11438.306150
         Ewald: (sum_charge**2) Energy =     904.277500
                          Ewald Energy =   -2824.100754
Basis initialisation ...... NGWF spheres initialised
... Projector spheres initialised
... NGWF tight boxes initialised
... Projector tight boxes initialised
... Tight-boxes gathered
... NGWF basis size (local,global):     693844  27898816
... PAW projector initialisation
... done

============================= Charge Augmentation ==============================
                           Aug box size:   11 x  11 x  11
================================================================================

========================== Sparse matrix information ===========================
                        Overlap matrix filling:  44.38%
                        Density kernel filling: 100.00%
              NGWF-Proj overlap matrix filling:  13.12%
                    Aug Overlap matrix filling:  47.81%
                    Hamiltonian matrix filling:  47.81%
                  NGWF diagonal matrix filling:   0.16%
                             KS matrix filling: 100.00% 
                           KSKS matrix filling: 100.00% 
================================================================================

Sparse matrix initialisation ... done
NGWF initialisation ...... done
============ Calculation of NGWF S^-1 using Hotelling algorithm ================ 
         Iteration  |  Frobenius norm and Maximum abs value    (of I-S*S_n^-1)   
               1       0.49210796E+02     0.97786604E+00
               2       0.48087000E+02     0.95755248E+00
               3       0.46371839E+02     0.92138191E+00
               4       0.44103647E+02     0.86198787E+00
               5       0.41351983E+02     0.77355253E+00
               6       0.38087303E+02     0.68976166E+00
               7       0.34568299E+02     0.63932110E+00
               8       0.31183748E+02     0.59716242E+00
               9       0.27692041E+02     0.55456214E+00
              10       0.23377685E+02     0.49079307E+00
              11       0.17729644E+02     0.38807750E+00
              12       0.11001888E+02     0.24724830E+00
              13       0.47929535E+01     0.10606556E+00
              14       0.10875224E+01     0.22149625E-01
              15       0.67808241E-01     0.11867385E-02
              16       0.34249210E-03     0.44670099E-05
              17       0.13237862E-07     0.10472068E-09
              18       0.82677700E-13     0.35527137E-14
================================================================================
Calculating core density ...
================================= Core Density =================================
               Core den box size:   21 x  21 x  21
================================================================================
 ... done
Up spin density kernel initialisation ...... done

Writing density kernel to file "3.2466752_GO_manual_4x64graphite.dkn" ... done

>>> Optimising kernel for current NGWFs:

--------------------------- Ensemble-DFT optimisation --------------------------
Running ScaLAPACK on   40 processor(s).

--------------------------------------------------------------------------------
  Iter                              Commutator    Free_energy(A=E-TS)     DeltaA
#    0                          0.000044586402   -3656.83517141540960  -3.66E+03

Step                       =       0.381966011250
Energy                     =   -3656.835134339053
Entropy (-TS)              =      -0.000037075898
Free energy (A=E-TS)       =   -3656.835171415410
Est. 0K Energy 0.5*(E+A)   =   -3656.835152877231
Residual Non-orthogonality =       0.000000000000
Residual N_electrons       =      -0.000000000458

Spin          Integrated_Ne            Fermi_level     Delta_Fermi_level
   1      2560.000000001998         0.229396874428              2.29E-01

                           Spin 1          
     Orb      H-eigenvalues     Occupancies
       1 |    -0.4962456094    1.0000000000 | 
                          ------
    1276 |     0.1962099141    0.9999718972 | 
    1277 |     0.1968116342    0.9999660166 | 
    1278 |     0.1968273881    0.9999658472 | 
    1279 |     0.1972948657    0.9999604147 | 
    1280 |     0.1979022531    0.9999520458 | 
                 - Gap at zero temperature -
    1281 |     0.2633590685    0.0000220007 | 
    1282 |     0.2633772332    0.0000218749 | 
    1283 |     0.2634634333    0.0000212875 | 
    1284 |     0.2635914312    0.0000204443 | 
    1285 |     0.2636096039    0.0000203273 | 
                          ------
    2560 |     1.0635580724    0.0000000000 | 

                       |  Abs_value |  Threshold | Converged
     Delta_Free_energy |   3.66E+03 |   1.00E-06 |        No
     Delta_Energy      |   3.66E+03 |   1.00E-04 |        No
     Delta_Entropy     |   3.71E-05 |   1.00E-04 |       Yes
     Commutator        |   4.46E-05 |   1.00E-05 |        No
     Delta_Fermi_level |   2.29E-01 |   1.00E-03 |        No

  Line search of the free energy minimum:
  Step_type        Step             Free_energy   Predicted_free_energy
.   Initial    0.000000    -3656.83517141540960
.    Trial1    0.381966    -3656.83715930562676
.    Trial2    0.618034    -3656.83706241769460
. Quadratic    0.477412    -3656.83724125070421    -3656.83724206830857

--------------------------------------------------------------------------------
  Iter                              Commutator    Free_energy(A=E-TS)     DeltaA
#    1                          0.000022463459   -3656.83724125070421  -2.07E-03

Step                       =       0.477411800897
Energy                     =   -3656.837205467821
Entropy (-TS)              =      -0.000035782570
Free energy (A=E-TS)       =   -3656.837241250704
Est. 0K Energy 0.5*(E+A)   =   -3656.837223359263
Residual Non-orthogonality =       0.000000000000
Residual N_electrons       =      -0.000000000314

Spin          Integrated_Ne            Fermi_level     Delta_Fermi_level
   1      2560.000000001354         0.231762125701              2.37E-03

                           Spin 1          
     Orb      H-eigenvalues     Occupancies
       1 |    -0.4949322615    1.0000000000 | 
                          ------
    1276 |     0.1985298533    0.9999722964 | 
    1277 |     0.1990017652    0.9999678448 | 
    1278 |     0.1990179270    0.9999676803 | 
    1279 |     0.1996371153    0.9999607012 | 
    1280 |     0.2001153842    0.9999542947 | 
                 - Gap at zero temperature -
    1281 |     0.2658199645    0.0000213462 | 
    1282 |     0.2658449957    0.0000211781 | 
    1283 |     0.2659492255    0.0000204925 | 
    1284 |     0.2661086426    0.0000194864 | 
    1285 |     0.2661463888    0.0000192555 | 
                          ------
    2560 |     1.0674550790    0.0000000000 | 

                       |  Abs_value |  Threshold | Converged
     Delta_Free_energy |   2.07E-03 |   1.00E-06 |        No
     Delta_Energy      |   2.07E-03 |   1.00E-04 |        No
     Delta_Entropy     |   1.29E-06 |   1.00E-04 |       Yes
     Commutator        |   2.25E-05 |   1.00E-05 |        No
     Delta_Fermi_level |   2.37E-03 |   1.00E-03 |        No

  Line search of the free energy minimum:
  Step_type        Step             Free_energy   Predicted_free_energy
.   Initial    0.000000    -3656.83724125070421
.    Trial1    0.477412    -3656.83749777159346
.    Trial2    0.677023    -3656.83692070963161
. Quadratic    0.291761    -3656.83767333454171    -3656.83767229791647

--------------------------------------------------------------------------------
  Iter                              Commutator    Free_energy(A=E-TS)     DeltaA
#    2                          0.000014591691   -3656.83767333454171  -4.32E-04

Step                       =       0.291761402126
Energy                     =   -3656.837638057610
Entropy (-TS)              =      -0.000035276376
Free energy (A=E-TS)       =   -3656.837673334542
Est. 0K Energy 0.5*(E+A)   =   -3656.837655696076
Residual Non-orthogonality =       0.000000000000
Residual N_electrons       =      -0.000000000556

Spin          Integrated_Ne            Fermi_level     Delta_Fermi_level
   1      2560.000000002392         0.232480090855              7.18E-04

                           Spin 1          
     Orb      H-eigenvalues     Occupancies
       1 |    -0.4945235132    1.0000000000 | 
                          ------
    1276 |     0.1991804734    0.9999728793 | 
    1277 |     0.1996887031    0.9999681583 | 
    1278 |     0.1997052464    0.9999679915 | 
    1279 |     0.2002834829    0.9999615797 | 
    1280 |     0.2007982566    0.9999547984 | 
                 - Gap at zero temperature -
    1281 |     0.2665920065    0.0000209848 | 
    1282 |     0.2666171247    0.0000208190 | 
    1283 |     0.2667192745    0.0000201582 | 
    1284 |     0.2668891491    0.0000191054 | 
    1285 |     0.2669127877    0.0000189633 | 
                          ------
    2560 |     1.0686795532    0.0000000000 | 

                       |  Abs_value |  Threshold | Converged
     Delta_Free_energy |   4.32E-04 |   1.00E-06 |        No
     Delta_Energy      |   4.33E-04 |   1.00E-04 |        No
     Delta_Entropy     |   5.06E-07 |   1.00E-04 |       Yes
     Commutator        |   1.46E-05 |   1.00E-05 |        No
     Delta_Fermi_level |   7.18E-04 |   1.00E-03 |       Yes

  Line search of the free energy minimum:
  Step_type        Step             Free_energy   Predicted_free_energy
.   Initial    0.000000    -3656.83767333454171
.    Trial1    0.291761    -3656.83784167549311
.    Trial2    0.562284    -3656.83768587915529
. Quadratic    0.286583    -3656.83784173600088    -3656.83784173048070

--------------------------------------------------------------------------------
  Iter                              Commutator    Free_energy(A=E-TS)     DeltaA
#    3                          0.000010268784   -3656.83784173600088  -1.68E-04

Step                       =       0.286582747918
Energy                     =   -3656.837806794604
Entropy (-TS)              =      -0.000034940854
Free energy (A=E-TS)       =   -3656.837841736001
Est. 0K Energy 0.5*(E+A)   =   -3656.837824265303
Residual Non-orthogonality =       0.000000000000
Residual N_electrons       =      -0.000000000544

Spin          Integrated_Ne            Fermi_level     Delta_Fermi_level
   1      2560.000000002333         0.232983462090              5.03E-04

                           Spin 1          
     Orb      H-eigenvalues     Occupancies
       1 |    -0.4942331218    1.0000000000 | 
                          ------
    1276 |     0.1996484782    0.9999731805 | 
    1277 |     0.2001631354    0.9999684479 | 
    1278 |     0.2001797214    0.9999682823 | 
    1279 |     0.2007510302    0.9999620118 | 
    1280 |     0.2012722298    0.9999552160 | 
                 - Gap at zero temperature -
    1281 |     0.2671273387    0.0000207741 | 
    1282 |     0.2671525145    0.0000206096 | 
    1283 |     0.2672551645    0.0000199523 | 
    1284 |     0.2674250583    0.0000189101 | 
    1285 |     0.2674435578    0.0000187999 | 
                          ------
    2560 |     1.0695434929    0.0000000000 | 

                       |  Abs_value |  Threshold | Converged
     Delta_Free_energy |   1.68E-04 |   1.00E-06 |        No
     Delta_Energy      |   1.69E-04 |   1.00E-04 |        No
     Delta_Entropy     |   3.36E-07 |   1.00E-04 |       Yes
     Commutator        |   1.03E-05 |   1.00E-05 |        No
     Delta_Fermi_level |   5.03E-04 |   1.00E-03 |       Yes

  Line search of the free energy minimum:
  Step_type        Step             Free_energy   Predicted_free_energy
.   Initial    0.000000    -3656.83784173600088
.    Trial1    0.286583    -3656.83792243581274
.    Trial2    0.559084    -3656.83783829476806
. Quadratic    0.276627    -3656.83792254415539    -3656.83792254046602

--------------------------------------------------------------------------------
  Iter                              Commutator    Free_energy(A=E-TS)     DeltaA
#    4                          0.000007417726   -3656.83792254415539  -8.08E-05

Step                       =       0.276627456896
Energy                     =   -3656.837887828894
[...]
 C   160 -- C   385       -0.10      5.37000
 C   159 -- C   384       -0.10      5.37000
 C   158 -- C   383       -0.10      5.37000
 C   157 -- C   382       -0.10      5.37000
 C   156 -- C   381       -0.10      5.37000
 C   155 -- C   355       -0.10      5.37000
 C   154 -- C   354       -0.10      5.37000
 C   153 -- C   353       -0.10      5.37000
 C   152 -- C   352       -0.10      5.37000
 C   151 -- C   351       -0.10      5.37000
 C   140 -- C   335       -0.10      5.37000
 C   139 -- C   334       -0.10      5.37000
 C   138 -- C   333       -0.10      5.37000
 C   137 -- C   332       -0.10      5.37000
 C   136 -- C   331       -0.10      5.37000
 C   115 -- C   325       -0.10      5.37000
 C   114 -- C   324       -0.10      5.37000
 C   113 -- C   323       -0.10      5.37000
 C   112 -- C   322       -0.10      5.37000
 C   111 -- C   321       -0.10      5.37000
 C   219 -- C   569       -0.10      5.37202
 C   218 -- C   568       -0.10      5.37202
 C   217 -- C   567       -0.10      5.37202
 C   216 -- C   566       -0.10      5.37202
 C   250 -- C   540       -0.10      5.37202
 C   249 -- C   539       -0.10      5.37202
 C   248 -- C   538       -0.10      5.37202
 C   247 -- C   537       -0.10      5.37202
 C   246 -- C   536       -0.10      5.37202
 C   220 -- C   570       -0.10      5.37202
 C   285 -- C   580       -0.10      5.37202
 C   284 -- C   579       -0.10      5.37202
 C   283 -- C   578       -0.10      5.37202
 C   282 -- C   577       -0.10      5.37202
 C   281 -- C   576       -0.10      5.37202
 C   260 -- C   605       -0.10      5.37202
 C   259 -- C   604       -0.10      5.37202
 C   258 -- C   603       -0.10      5.37202
 C   257 -- C   602       -0.10      5.37202
 C   256 -- C   601       -0.10      5.37202
 C   220 -- C   515       -0.10      5.37202
 C   219 -- C   514       -0.10      5.37202
 C   218 -- C   513       -0.10      5.37202
 C   217 -- C   512       -0.10      5.37202
 C   216 -- C   511       -0.10      5.37202
 C   195 -- C   540       -0.10      5.37202
 C   195 -- C   500       -0.10      5.37202
 C   194 -- C   539       -0.10      5.37202
 C   194 -- C   499       -0.10      5.37202
 C   193 -- C   538       -0.10      5.37202
 C   193 -- C   498       -0.10      5.37202
 C   192 -- C   537       -0.10      5.37202
 C   192 -- C   497       -0.10      5.37202
 C   191 -- C   536       -0.10      5.37202
 C   191 -- C   496       -0.10      5.37202
 C   180 -- C   515       -0.10      5.37202
 C   179 -- C   514       -0.10      5.37202
 C   178 -- C   513       -0.10      5.37202
 C   177 -- C   512       -0.10      5.37202
 C   176 -- C   511       -0.10      5.37202
 C    11 -- C   331       -0.10      5.37202
 C   205 -- C   550       -0.10      5.37202
 C   204 -- C   549       -0.10      5.37202
 C   203 -- C   548       -0.10      5.37202
 C   202 -- C   547       -0.10      5.37202
 C   201 -- C   546       -0.10      5.37202
 C    95 -- C   425       -0.10      5.37202
 C    95 -- C   365       -0.10      5.37202
 C    94 -- C   424       -0.10      5.37202
 C    94 -- C   364       -0.10      5.37202
 C    93 -- C   423       -0.10      5.37202
 C    93 -- C   363       -0.10      5.37202
 C    92 -- C   422       -0.10      5.37202
 C    92 -- C   362       -0.10      5.37202
 C    91 -- C   421       -0.10      5.37202
 C    91 -- C   361       -0.10      5.37202
 C    40 -- C   365       -0.10      5.37202
 C    39 -- C   364       -0.10      5.37202
 C    38 -- C   363       -0.10      5.37202
 C    37 -- C   362       -0.10      5.37202
 C    36 -- C   361       -0.10      5.37202
 C    15 -- C   335       -0.10      5.37202
 C    65 -- C   395       -0.10      5.37202
 C    65 -- C   345       -0.10      5.37202
 C    64 -- C   394       -0.10      5.37202
 C    64 -- C   344       -0.10      5.37202
 C    63 -- C   393       -0.10      5.37202
 C    30 -- C   355       -0.10      5.37202
 C    63 -- C   343       -0.10      5.37202
 C    62 -- C   392       -0.10      5.37202
 C    30 -- C   325       -0.10      5.37202
 C    14 -- C   334       -0.10      5.37202
 C    62 -- C   342       -0.10      5.37202
 C    61 -- C   391       -0.10      5.37202
 C    29 -- C   354       -0.10      5.37202
 C    61 -- C   341       -0.10      5.37202
 C    29 -- C   324       -0.10      5.37202
 C   260 -- C   550       -0.10      5.37202
 C   259 -- C   549       -0.10      5.37202
 C    28 -- C   353       -0.10      5.37202
 C   258 -- C   548       -0.10      5.37202
 C   257 -- C   547       -0.10      5.37202
 C   256 -- C   546       -0.10      5.37202
 C    28 -- C   323       -0.10      5.37202
 C    27 -- C   352       -0.10      5.37202
 C    13 -- C   333       -0.10      5.37202
 C    27 -- C   322       -0.10      5.37202
 C   120 -- C   395       -0.10      5.37202
 C    26 -- C   351       -0.10      5.37202
 C   119 -- C   394       -0.10      5.37202
 C   118 -- C   393       -0.10      5.37202
 C    55 -- C   335       -0.10      5.37202
 C   117 -- C   392       -0.10      5.37202
 C    26 -- C   321       -0.10      5.37202
 C   116 -- C   391       -0.10      5.37202
 C    54 -- C   334       -0.10      5.37202
 C    12 -- C   332       -0.10      5.37202
 C    53 -- C   333       -0.10      5.37202
 C   230 -- C   580       -0.10      5.37202
 C   230 -- C   525       -0.10      5.37202
 C   229 -- C   579       -0.10      5.37202
 C   229 -- C   524       -0.10      5.37202
 C   228 -- C   578       -0.10      5.37202
 C    52 -- C   332       -0.10      5.37202
 C   228 -- C   523       -0.10      5.37202
 C   227 -- C   577       -0.10      5.37202
 C   227 -- C   522       -0.10      5.37202
 C   226 -- C   576       -0.10      5.37202
 C   226 -- C   521       -0.10      5.37202
 C    51 -- C   331       -0.10      5.37202
 C    23 -- C   478       -0.10      5.37202
 C    49 -- C   469       -0.10      5.37202
 C    48 -- C   468       -0.10      5.37202
 C    47 -- C   467       -0.10      5.37202
 C    22 -- C   477       -0.10      5.37202
 C    46 -- C   466       -0.10      5.37202
 C    21 -- C   476       -0.10      5.37202
 C    85 -- C   355       -0.10      5.37202
 C    84 -- C   354       -0.10      5.37202
 C    83 -- C   353       -0.10      5.37202
 C    82 -- C   352       -0.10      5.37202
 C    81 -- C   351       -0.10      5.37202
 C    55 -- C   385       -0.10      5.37202
 C    54 -- C   384       -0.10      5.37202
 C    25 -- C   480       -0.10      5.37202
 C    53 -- C   383       -0.10      5.37202
 C    52 -- C   382       -0.10      5.37202
 C    51 -- C   381       -0.10      5.37202
 C    24 -- C   479       -0.10      5.37202
 C    50 -- C   470       -0.10      5.37202
 C    24 -- C   449       -0.10      5.37202
 C     6 -- C   416       -0.10      5.37202
 C    23 -- C   448       -0.10      5.37202
 C    22 -- C   447       -0.10      5.37202
 C    10 -- C   470       -0.10      5.37202
 C     5 -- C   450       -0.10      5.37202
 C    21 -- C   446       -0.10      5.37202
 C    10 -- C   420       -0.10      5.37202
 C     9 -- C   469       -0.10      5.37202
 C     9 -- C   419       -0.10      5.37202
 C     8 -- C   468       -0.10      5.37202
 C     4 -- C   449       -0.10      5.37202
 C   150 -- C   440       -0.10      5.37202
 C   149 -- C   439       -0.10      5.37202
 C   148 -- C   438       -0.10      5.37202
 C   147 -- C   437       -0.10      5.37202
 C     8 -- C   418       -0.10      5.37202
 C   146 -- C   436       -0.10      5.37202
 C     2 -- C   447       -0.10      5.37202
 C   135 -- C   460       -0.10      5.37202
 C     7 -- C   467       -0.10      5.37202
 C   134 -- C   459       -0.10      5.37202
 C   133 -- C   458       -0.10      5.37202
 C   132 -- C   457       -0.10      5.37202
 C   131 -- C   456       -0.10      5.37202
 C     7 -- C   417       -0.10      5.37202
 C     1 -- C   446       -0.10      5.37202
 C     6 -- C   466       -0.10      5.37202
 C    25 -- C   450       -0.10      5.37202
 C     3 -- C   448       -0.10      5.37202
 C   106 -- C   436       -0.10      5.37202
 C   106 -- C   376       -0.10      5.37202
 C    80 -- C   410       -0.10      5.37202
 C    79 -- C   409       -0.10      5.37202
 C    78 -- C   408       -0.10      5.37202
 C    77 -- C   407       -0.10      5.37202
 C    76 -- C   406       -0.10      5.37202
 C   135 -- C   410       -0.10      5.37202
 C   134 -- C   409       -0.10      5.37202
 C   133 -- C   408       -0.10      5.37202
 C   132 -- C   407       -0.10      5.37202
 C   131 -- C   406       -0.10      5.37202
 C   110 -- C   440       -0.10      5.37202
 C   110 -- C   380       -0.10      5.37202
 C   109 -- C   439       -0.10      5.37202
 C   109 -- C   379       -0.10      5.37202
 C   108 -- C   438       -0.10      5.37202
 C   108 -- C   378       -0.10      5.37202
 C   107 -- C   437       -0.10      5.37202
 C   107 -- C   377       -0.10      5.37202
 C   215 -- C   635       -0.10      5.38000
 C   214 -- C   634       -0.10      5.38000
 C   213 -- C   633       -0.10      5.38000
 C   212 -- C   632       -0.10      5.38000
 C   211 -- C   631       -0.10      5.38000
 C   190 -- C   620       -0.10      5.38000
 C   189 -- C   619       -0.10      5.38000
 C   188 -- C   618       -0.10      5.38000
 C   187 -- C   617       -0.10      5.38000
 C   186 -- C   616       -0.10      5.38000
 C   175 -- C   595       -0.10      5.38000
 C   174 -- C   594       -0.10      5.38000
 C   173 -- C   593       -0.10      5.38000
 C   172 -- C   592       -0.10      5.38000
 C   171 -- C   591       -0.10      5.38000
 C   245 -- C   640       -0.10      5.38000
 C   244 -- C   639       -0.10      5.38000
 C   243 -- C   638       -0.10      5.38000
 C   242 -- C   637       -0.10      5.38000
 C   241 -- C   636       -0.10      5.38000
==================================================


=================== Orbital energy and occupancy information ===================

      Total number of orbitals:    2560
        Occupancy sum (kernel):    1280.000000001
   Occupancy sum (eigenvalues):    1280.000000001
                 HOMO-LUMO gap:       0.000014358 Eh
                 Mid-gap level:       0.307371397 Eh

                        Orbital | Energy (Eh) | Occupancy
                            1    -0.452081214   1.0000000
                        .......   ...........   .........
                         1272     0.239199984   0.9999881
                         1273     0.239610459   0.9999864
                         1274     0.239671122   0.9999862
                         1275     0.243579025   0.9999525
                         1276     0.243584474   0.9999525
                         1277     0.244026654   0.9999453
                         1278     0.244032060   0.9999452
                         1279     0.244355568   0.9999393
                         1280     0.244787545   0.9999305
                         1281     0.307364218   0.0000376
                        ....... -- gap at 0K -- .........
                         1282     0.307378576   0.0000374
                         1283     0.307622723   0.0000346
                         1284     0.307636839   0.0000345
                         1285     0.308214746   0.0000288
                         1286     0.308222649   0.0000288
                         1287     0.308489503   0.0000264
                         1288     0.308497415   0.0000264
                         1289     0.308846128   0.0000237
                         1290     0.309126803   0.0000217
                         1291     0.309447669   0.0000194
                        .......   ...........   .........
                         2560     1.167408931   0.0000000

================================================================================

===================== Writing canonical molecular orbitals =====================
| Orbital  Energy (eV)  Norm     |
| HOMO      8.36380595  1.000000 | Writing "3.2466752_GO_manual_4x64graphite_HOMO.cube" ... done
Writing "3.2466752_GO_manual_4x64graphite_HOMO.dx" ... done
| LUMO      8.36419665  1.000000 | Writing "3.2466752_GO_manual_4x64graphite_LUMO.cube" ... done
Writing "3.2466752_GO_manual_4x64graphite_LUMO.dx" ... done
================================================================================
 
===================== Density of States (DOS) calculation ======================
Writing "3.2466752_GO_manual_4x64graphite_DOS.txt" ...  done
================================================================================
 
Writing bands to file "3.2466752_GO_manual_4x64graphite.val_bands" ... done
 
================ Projected Density of States (pDOS) calculation ================
 
Constructing AM resolved functions  ...... done
Writing NGWF plot files in formats: CUBE DX ...  done
 
Performing overlap integrals ...  done
 
Computing pDOS weights ...  done
 
All bands spilling parameter =   3.94 %
Occupancy-weighted spilling parameter =   0.87 %
 
 => Outputting data for OptaDOS <=
 
Writing pDOS weights to file "3.2466752_GO_manual_4x64graphite.val_pdos_bin" ... done
 
Writing band gradients to file "3.2466752_GO_manual_4x64graphite.val_dome_bin" ... done
 
Writing Castep output cell file to "3.2466752_GO_manual_4x64graphite-out.cell" ... done
 
 => Computing Gaussian smeared pDOS <= 
Writing "3.2466752_GO_manual_4x64graphite_PDOS.txt" ...  done
 
 => Computing Occupancy-weighted Gaussian smeared pDOS <= 
Writing "3.2466752_GO_manual_4x64graphite_occ_PDOS.txt" ...  done
  => Band centres: 
 S band centre of group 1:  -15.603404 eV
 P band centre of group 1:   -8.463298 eV
  Band centres done. <=
  => Integrated number of electrons in each AM band: 
 S num electrons of group 1:  577.501931
 P num electrons of group 1: 1960.324759
  Integrated number of electrons done. <=
================================================================================

------------------------------ TIMING INFORMATION ------------------------------
AVERAGE TIME:    4379.231s on     40 node(s)                                    
TOTAL TIME:      4379.232s on     40 node(s)                                    
================= AVERAGE TIMINGS FROM ALL NODES (CUMULATIVE) ==================
|| TAG                                    #calls    cpu time   %total  Gflops ||
|| work_imbalance                       :     1        0.00s   0.000%  ------ ||
|| paw_tcore_hartree_on_grid            :     1        0.00s   0.000%  ------ ||
|| paw_tcore_density                    :     1        0.01s   0.000%  ------ ||
|| paw_sphere_density_on_grid           :     1        0.01s   0.000%  ------ ||
|| sparse_set_to_garbage                :   183        0.03s   0.001%  ------ ||
|| paw_dij_hartree                      :   384        0.05s   0.001%  ------ ||
|| pseudo_make_structure_factor         :     1        0.05s   0.001%  ------ ||
|| basis_extract_function_from_box      :  2048        0.09s   0.002%  ------ ||
|| paw_species_calc_proj_prec_mat       :     1        0.12s   0.003%  ------ ||
|| paw_dataset_init                     :     1        0.15s   0.003%  ------ ||
|| density_init_guess_real              :     1        0.18s   0.004%  ------ ||
|| ngwfs_initialise_from_radial         :     2        0.66s   0.015%  ------ ||
|| restart_kernel_write                 :    17        0.85s   0.019%  ------ ||
|| sparse_init                          :     1        0.97s   0.022%  ------ ||
|| dense_normal_eigensolve              :     1        0.98s   0.022%  ------ ||
|| hartree_on_grid                      :   289        1.65s   0.038%  ------ ||
|| ewald_calculate_energy               :     1        2.38s   0.054%  ------ ||
|| projectors_init_fftbox_recip         :   161        3.15s   0.072%  ------ ||
|| fourier_apply_box_pair               :  3040        5.03s   0.115% 560.977 ||
|| basis_copy_function_to_box           : 27328        5.89s   0.134%  ------ ||
|| augmentation_screen_dij              :   296        6.53s   0.149%  ------ ||
|| sw_init                              :     1        6.73s   0.154%  ------ ||
|| sparse_embed_hotelling_invert_embed  :    31        9.51s   0.217%  ------ ||
|| ngwf_gradient_coeffs                 :    16       13.10s   0.299%  ------ ||
|| fourier_apply_cell_backward          :  8930       15.86s   0.362%  63.840 ||
|| cell_grid_extract_box_real           : 11532       17.14s   0.392%  ------ ||
|| fourier_apply_cell_forward           :  8353       18.26s   0.417%  51.876 ||
|| sparse_trace                         :  3484       19.52s   0.446%  ------ ||
|| cell_grid_deposit_box_real           : 37168       26.33s   0.601%  ------ ||
|| paw_dij_xc                           :   384       30.23s   0.690%  ------ ||
|| aug_nonlocal_mat                     :   368       43.62s   0.996%  ------ ||
|| eigenstates_pdos                     :     1       53.47s   1.221%  ------ ||
|| density_fftbox_deposit_to_cell       : 18496       53.72s   1.227%  ------ ||
|| augmentation_density_on_grid         :   289       56.65s   1.294%  ------ ||
|| eigenstates_calculate                :     1       57.64s   1.316%  ------ ||
|| function_ops_brappd_ketppd           :    64       67.20s   1.535%  ------ ||
|| hamiltonian_energy_components        :     4       67.21s   1.535%  ------ ||
|| nlxc_vdw_energy                      :   576       71.69s   1.637%  ------ ||
|| projectors_func_ovlp_box             :    32       78.12s   1.784%  ------ ||
|| xc_energy_potential                  :   288       81.04s   1.851%  ------ ||
|| properties_calculate                 :     1      102.99s   2.352%  ------ ||
|| integrals_kinetic                    :    31      114.23s   2.608%  ------ ||
|| dense_eigensolve                     :   253      121.46s   2.774%  ------ ||
|| restart_ngwfs_tightbox_output        :    15      130.25s   2.974%  ------ ||
|| potential_apply_to_ngwf_batch        :   360      143.73s   3.282%  ------ ||
|| sparse_product                       :  3504      159.50s   3.642%  ------ ||
|| basis_dot_function_with_box          : 9.048M     249.87s   5.706%  ------ ||
|| fourier_apply_box                    : 86064      267.58s   6.110% 977.987 ||
|| edft_diag_ngwf_ham                   :   252      290.01s   6.622%  ------ ||
|| projectors_gradient_batch            :    64      303.62s   6.933%  ------ ||
|| integrals_locpot_mat_els_batch       :   360      337.55s   7.708%  ------ ||
|| density_fftbox_interpolate_multiply  : 18496      358.78s   8.193%  ------ ||
|| projectors_grad_precond_batch        :    64      445.37s  10.170%  ------ ||
|| density_batch_interp_deposit         :  1156      460.72s  10.521%  ------ ||
|| integrals_locpot_dbl_grid            :    90      483.27s  11.035%  ------ ||
|| edft_apply_smearing_operator         :   252      556.55s  12.709%  ------ ||
|| basis_add_function_to_box            : 25.66M     680.85s  15.547%  ------ ||
|| ngwf_gradient_build_batch            :    64      797.70s  18.216%  ------ ||
|| density_batch_row_sums               :  1156      973.67s  22.234%  ------ ||
|| ngwf_gradient_batch                  :    64     1053.34s  24.053%  ------ ||
|| ngwf_gradient_lnv                    :    16     1084.45s  24.764%  ------ ||
|| density_on_dbl_grid                  :   289     1449.32s  33.095%  ------ ||
|| hamiltonian_lhxc_calculate           :   283     1560.06s  35.624%  ------ ||
|| edft_calculate                       :    16     2586.18s  59.056%  ------ ||
|| ngwf_cg_optimise                     :     1     4250.88s  97.069%  ------ ||
|| total_time                           :     1     4379.23s 100.000%  ------ ||
================================================================================
Overhead of generating timer report: 
- 0 ms averaging over threads,
- 5 ms ensuring consistency across MPI ranks,
- 0 ms printing in order.

Job completed: 26-02-2020 01:21 (-0000)

