 +---------------------------------------------------------------+
 |                                                               |
 |        ####### #     # ####### ####### ####### ######         |
 |        #     # ##    # #          #    #       #     #        |
 |        #     # # #   # #          #    #       #     #        |
 |        #     # #  #  # #####      #    #####   ######         |
 |        #     # #   # # #          #    #       #              |
 |        #     # #    ## #          #    #       #              |
 |        ####### #     # #######    #    ####### #              |
 |                                                               |
 |        Linear-Scaling Ab Initio Total Energy Program          |
 |                                                               |
 |          Release for academic collaborators of ODG            |
 |                                             Version 5.3.2.12  |
 |                                                               |
 +---------------------------------------------------------------+
 |                                                               |
 |  Authors:                                                     |
 |  Jacek Dziedzic, Peter D. Haynes, Nicholas D. M. Hine,        |
 |  Arash. A. Mostofi, Mike C. Payne and Chris-Kriton Skylaris   |
 |                                                               |
 |  Contributors:                                                |
 |  J. Aarons, L. Andrinopoulos, P. W. Avraam, R. A. Bell,       |
 |  A. Bhandari, G. A. Bramley, R. J. Charlton, S. J. Clark,     |
 |  R. J. Clements, G. C. Constantinescu, F. Corsetti,           |
 |  N. Corsini, O. Dieguez, S. M. M. Dubois, K. K. B. Duff,      |
 |  J. M. Escartin, A. Greco, H. Helal, Q. O. Hill, L. P. Lee,   |
 |  J.-H. Li, E. B. Linscott, G. Moynihan, D. D. O`Regan,        |
 |  O. K. Okan, M. J. S. Phipps, C. J. Pickard,                  |
 |  J. C. A. Prentice, M. I. J. Probert, L. E. Ratcliff,         |
 |  M. Robinson, A. Ruiz Serrano, J. S. Spencer, E. W. Tait,     |
 |  G. Teobaldi, D. Turban, V. Vitale, K. A. Wilkinson,          |
 |  C. Weber, J. C. Womack, N. Yeung and T. J. Zuehlsdorff       |
 |                                                               |
 |                                   Copyright (c) 2004-2020     |
 |                                                               |
 |  Please cite:                                                 |
 |  "Introducing ONETEP: Linear-scaling density functional       |
 |   simulations on parallel computers".                         |
 |   C.-K. Skylaris, P. D. Haynes, A. A. Mostofi, M. C. Payne.   |
 |   J. Chem. Phys. 122 084119 (2005).                           |
 |                                                               |
 |          in all publications arising from your use of ONETEP. |
 |                                                               |
 +---------------------------------------------------------------+
 |                                                               |
 |   ONETEP is based on developments described in the following  |
 |   publications:                                               |
 |                                                               |
 |  "Nonorthogonal generalized Wannier function pseudopotential  |
 |   plane-wave method".                                         |
 |   C.-K. Skylaris, A. A. Mostofi, P. D. Haynes, O. Dieguez,    |
 |   M. C. Payne.                                                |
 |   Phys. Rev. B 66 035119 (2002).                              |
 |                                                               |
 |  "Preconditioned iterative minimization for linear-scaling    |
 |   electronic structure calculations".                         |
 |   A. A. Mostofi, P. D. Haynes, C.-K. Skylaris, M. C. Payne.   |
 |   J. Chem. Phys. 119(17), pp.8842-8848 (2003).                |
 |                                                               |
 |  "Total-energy calculations on a real space grid with         |
 |   localized functions and a plane-wave basis".                |
 |   A. A. Mostofi, C.-K. Skylaris, P. D. Haynes, M. C. Payne.   |
 |   Comput. Phys. Commun. 147, pp.788-802 (2002).               |
 |                                                               |
 |  "Accurate kinetic energy evaluation in electronic structure  |
 |   calculations with localized functions on real space grids"  |
 |   C.-K. Skylaris, A. A. Mostofi, P. D. Haynes, C. J. Pickard, |
 |   M. C. Payne.                                                |
 |   Comput. Phys. Commun. 140, pp.315-322 (2001).               |
 |                                                               |
 |  "Accurate ionic forces and geometry optimization in linear-  |
 |   scaling density-functional theory with local orbitals"      |
 |   N. D. M. Hine, M. Robinson, P. D. Haynes, C.-K. Skylaris,   |
 |   M. C. Payne, and A. A. Mostofi.                             |
 |   Phys. Rev. B 83 195102 (2011).                              |
 |                                                               |
 +---------------------------------------------------------------+

Job started: 26-02-2020 01:21 (-0000)
 
Reading parameters from file "3.488156_GO_manual_4x64graphite.dat" ...

WARNING: "cutoff_energy" not specified, but "psinc_spacing" specified.
         Using the latter to set the KE cutoff energy to  732.32021eV,
         thus *overriding* the default.

... done

If your calculation crashes here, before "Checking processes and threads..."
is displayed, then your stack size is insufficient.
If so, use "ulimit -s unlimited" at runtime.
You can disable this check with "check_stack_size F".

Checking processes and threads...
   Determining the default number of threads...
      No default threads set at compilation time: defaulting to 1.
      OpenMP library call suggests 4 threads.
      Hybrid MPI-OpenMP compilation detected.
      Number of MPI processes > 1.
      OMP_NUM_THREADS environment variable present and
      its value matches the one obtained from the OpenMP library call.
      Using this value as default.
      Default threads: 4
      Default applies to threads_max and threads_num_fftboxes.
      Settings in the input file override this default.
   ... done

   Running with 40 MPI processes.
   There are 10 MPI processes running on the same node as the root process.
   Each MPI process is using: 
               1 threads for simulation cell FFTs.
               1 threads for parallel FFT box operations.
               4 threads for loops over batched FFT box operations.
               4 threads in other parallel regions.
... done

Basic input checks...
Resetting ngwf_cg_rotate to TRUE for EDFT calculations
... done

Reading geometry and species blocks from file "3.488156_GO_manual_4x64graphite.dat" ...
    
  PSINC grid spacing along a1 set to   0.511215680000a0 from input file.
  PSINC grid spacing along a2 set to   0.531284090000a0 from input file.
  PSINC grid spacing along a3 set to   0.507051770000a0 from input file.
  Number of PPD points along a3 set to 1.  This is 
  the default value, it may have been provided also in the input file.
... done
 Writing xyz coordinates to file "3.488156_GO_manual_4x64graphite.xyz" ... done


--------------------------------------------------------------------------------
---------------------------------- INPUT FILE ----------------------------------
--------------------------------------------------------------------------------

task : singlepoint                                                              
do_properties : true                                                            
dx_format T                                                                     
edft T                                                                          
output_detail VERBOSE                                                           
write_xyz T                                                                     
xc_functional VDWDF                                                             
PSINC_SPACING 0.51121568 0.53128409 0.50705177                                  
paw T                                                                           
pdos_max_l = 2                                                                  
dos_smear  0.1 eV                                                               
popn_calculate T                                                                
PDOS_PSEUDOATOMIC T                                                             
PDOS_REDUCE_SWS F                                                               
PDOS_CONSTRUCT_BASIS F                                                          
PDOS_LOWDIN T                                                                   
PDOS_ORTH_ATOM_BLOCKS F                                                         
PDOS_LCAO_OPTIMIZE F                                                            
pdos_optados_output T                                                           
homo_plot 0                                                                     
lumo_plot 0                                                                     
homo_dens_plot -1                                                               
lumo_dens_plot -1                                                               
%BLOCK SPECIES                                                                  
C C 6 4 9.0                                                                     
%ENDBLOCK SPECIES                                                               
%BLOCK SPECIES_POT                                                              
C "~/pp/paw/c_pbe_abinit.paw"                                                   
%ENDBLOCK SPECIES_POT                                                           
%BLOCK SPECIES_ATOMIC_SET                                                       
C "SOLVE conf=2s2 2p2"                                                          
%ENDBLOCK SPECIES_ATOMIC_SET                                                    
%BLOCK LATTICE_CART                                                             
32.21  0.00  0.00                                                               
0.00 18.59  0.00                                                                
0.00  0.00 65.92                                                                
%ENDBLOCK LATTICE_CART                                                          
%BLOCK POSITIONS_ABS                                                            
C  0.00  0.00  3.30                                                             
C  0.00  0.00 16.48                                                             
C  0.00  0.00 29.66                                                             
C  0.00  0.00 42.85                                                             
C  0.00  0.00 56.03                                                             
C  0.00  4.65  3.30                                                             
C  0.00  4.65 16.48                                                             
C  0.00  4.65 29.66                                                             
C  0.00  4.65 42.85                                                             
C  0.00  4.65 56.03                                                             
C  4.03  2.32  3.30                                                             
C  4.03  2.32 16.48                                                             
C  4.03  2.32 29.66                                                             
C  4.03  2.32 42.85                                                             
C  4.03  2.32 56.03                                                             
C  8.05  0.00  3.30                                                             
C  8.05  0.00 16.48                                                             
C  8.05  0.00 29.66                                                             
C  8.05  0.00 42.85                                                             
C  8.05  0.00 56.03                                                             
C  0.00  9.30  3.30                                                             
C  0.00  9.30 16.48                                                             
C  0.00  9.30 29.66                                                             
C  0.00  9.30 42.85                                                             
C  0.00  9.30 56.03                                                             
C  4.03  6.97  3.30                                                             
C  4.03  6.97 16.48                                                             
C  4.03  6.97 29.66                                                             
C  4.03  6.97 42.85                                                             
C  4.03  6.97 56.03                                                             
C  8.05  4.65  3.30                                                             
C  8.05  4.65 16.48                                                             
C  8.05  4.65 29.66                                                             
C  8.05  4.65 42.85                                                             
C  8.05  4.65 56.03                                                             
C 12.08  2.32  3.30                                                             
C 12.08  2.32 16.48                                                             
C 12.08  2.32 29.66                                                             
C 12.08  2.32 42.85                                                             
C 12.08  2.32 56.03                                                             
C 16.10  0.00  3.30                                                             
C 16.10  0.00 16.48                                                             
C 16.10  0.00 29.66                                                             
C 16.10  0.00 42.85                                                             
C 16.10  0.00 56.03                                                             
C  0.00 13.95  3.30                                                             
C  0.00 13.95 16.48                                                             
C  0.00 13.95 29.66                                                             
C  0.00 13.95 42.85                                                             
C  0.00 13.95 56.03                                                             
C  4.03 11.62  3.30                                                             
C  4.03 11.62 16.48                                                             
C  4.03 11.62 29.66                                                             
C  4.03 11.62 42.85                                                             
C  4.03 11.62 56.03                                                             
C  8.05  9.30  3.30                                                             
C  8.05  9.30 16.48                                                             
C  8.05  9.30 29.66                                                             
C  8.05  9.30 42.85                                                             
C  8.05  9.30 56.03                                                             
C 12.08  6.97  3.30                                                             
C 12.08  6.97 16.48                                                             
C 12.08  6.97 29.66                                                             
C 12.08  6.97 42.85                                                             
C 12.08  6.97 56.03                                                             
C 16.10  4.65  3.30                                                             
C 16.10  4.65 16.48                                                             
C 16.10  4.65 29.66                                                             
C 16.10  4.65 42.85                                                             
C 16.10  4.65 56.03                                                             
C 20.13  2.32  3.30                                                             
C 20.13  2.32 16.48                                                             
C 20.13  2.32 29.66                                                             
C 20.13  2.32 42.85                                                             
C 20.13  2.32 56.03                                                             
C 24.16  0.00  3.30                                                             
C 24.16  0.00 16.48                                                             
C 24.16  0.00 29.66                                                             
C 24.16  0.00 42.85                                                             
C 24.16  0.00 56.03                                                             
C  4.03 16.27  3.30                                                             
C  4.03 16.27 16.48                                                             
C  4.03 16.27 29.66                                                             
C  4.03 16.27 42.85                                                             
C  4.03 16.27 56.03                                                             
C  8.05 13.95  3.30                                                             
C  8.05 13.95 16.48                                                             
C  8.05 13.95 29.66                                                             
C  8.05 13.95 42.85                                                             
C  8.05 13.95 56.03                                                             
C 12.08 11.62  3.30                                                             
C 12.08 11.62 16.48                                                             
C 12.08 11.62 29.66                                                             
C 12.08 11.62 42.85                                                             
C 12.08 11.62 56.03                                                             
C 16.10  9.30  3.30                                                             
C 16.10  9.30 16.48                                                             
C 16.10  9.30 29.66                                                             
C 16.10  9.30 42.85                                                             
C 16.10  9.30 56.03                                                             
C 20.13  6.97  3.30                                                             
C 20.13  6.97 16.48                                                             
C 20.13  6.97 29.66                                                             
C 20.13  6.97 42.85                                                             
C 20.13  6.97 56.03                                                             
C 24.16  4.65  3.30                                                             
C 24.16  4.65 16.48                                                             
C 24.16  4.65 29.66                                                             
C 24.16  4.65 42.85                                                             
C 24.16  4.65 56.03                                                             
C 28.18  2.32  3.30                                                             
C 28.18  2.32 16.48                                                             
C 28.18  2.32 29.66                                                             
C 28.18  2.32 42.85                                                             
C 28.18  2.32 56.03                                                             
C 12.08 16.27  3.30                                                             
C 12.08 16.27 16.48                                                             
C 12.08 16.27 29.66                                                             
C 12.08 16.27 42.85                                                             
C 12.08 16.27 56.03                                                             
C 16.10 13.95  3.30                                                             
C 16.10 13.95 16.48                                                             
C 16.10 13.95 29.66                                                             
C 16.10 13.95 42.85                                                             
C 16.10 13.95 56.03                                                             
C 20.13 11.62  3.30                                                             
C 20.13 11.62 16.48                                                             
C 20.13 11.62 29.66                                                             
C 20.13 11.62 42.85                                                             
C 20.13 11.62 56.03                                                             
C 24.16  9.30  3.30                                                             
C 24.16  9.30 16.48                                                             
C 24.16  9.30 29.66                                                             
C 24.16  9.30 42.85                                                             
C 24.16  9.30 56.03                                                             
C 28.18  6.97  3.30                                                             
C 28.18  6.97 16.48                                                             
C 28.18  6.97 29.66                                                             
C 28.18  6.97 42.85                                                             
C 28.18  6.97 56.03                                                             
C 20.13 16.27  3.30                                                             
C 20.13 16.27 16.48                                                             
C 20.13 16.27 29.66                                                             
C 20.13 16.27 42.85                                                             
C 20.13 16.27 56.03                                                             
C 24.16 13.95  3.30                                                             
C 24.16 13.95 16.48                                                             
C 24.16 13.95 29.66                                                             
C 24.16 13.95 42.85                                                             
C 24.16 13.95 56.03                                                             
C 28.18 11.62  3.30                                                             
C 28.18 11.62 16.48                                                             
C 28.18 11.62 29.66                                                             
C 28.18 11.62 42.85                                                             
C 28.18 11.62 56.03                                                             
C 28.18 16.27  3.30                                                             
C 28.18 16.27 16.48                                                             
C 28.18 16.27 29.66                                                             
C 28.18 16.27 42.85                                                             
C 28.18 16.27 56.03                                                             
C  0.00  0.00  9.89                                                             
C  0.00  0.00 23.07                                                             
C  0.00  0.00 36.25                                                             
C  0.00  0.00 49.44                                                             
C  0.00  0.00 62.62                                                             
C  0.00  4.65  9.89                                                             
C  0.00  4.65 23.07                                                             
C  0.00  4.65 36.25                                                             
C  0.00  4.65 49.44                                                             
C  0.00  4.65 62.62                                                             
C  4.03  2.32  9.89                                                             
C  4.03  2.32 23.07                                                             
C  4.03  2.32 36.25                                                             
C  4.03  2.32 49.44                                                             
C  4.03  2.32 62.62                                                             
C  8.05  0.00  9.89                                                             
C  8.05  0.00 23.07                                                             
C  8.05  0.00 36.25                                                             
C  8.05  0.00 49.44                                                             
C  8.05  0.00 62.62                                                             
C  0.00  9.30  9.89                                                             
C  0.00  9.30 23.07                                                             
C  0.00  9.30 36.25                                                             
C  0.00  9.30 49.44                                                             
C  0.00  9.30 62.62                                                             
C  4.03  6.97  9.89                                                             
C  4.03  6.97 23.07                                                             
C  4.03  6.97 36.25                                                             
C  4.03  6.97 49.44                                                             
C  4.03  6.97 62.62                                                             
C  8.05  4.65  9.89                                                             
C  8.05  4.65 23.07                                                             
C  8.05  4.65 36.25                                                             
C  8.05  4.65 49.44                                                             
C  8.05  4.65 62.62                                                             
C 12.08  2.32  9.89                                                             
C 12.08  2.32 23.07                                                             
C 12.08  2.32 36.25                                                             
C 12.08  2.32 49.44                                                             
C 12.08  2.32 62.62                                                             
C 16.10  0.00  9.89                                                             
C 16.10  0.00 23.07                                                             
C 16.10  0.00 36.25                                                             
C 16.10  0.00 49.44                                                             
C 16.10  0.00 62.62                                                             
C  0.00 13.95  9.89                                                             
C  0.00 13.95 23.07                                                             
C  0.00 13.95 36.25                                                             
C  0.00 13.95 49.44                                                             
C  0.00 13.95 62.62                                                             
C  4.03 11.62  9.89                                                             
C  4.03 11.62 23.07                                                             
C  4.03 11.62 36.25                                                             
C  4.03 11.62 49.44                                                             
C  4.03 11.62 62.62                                                             
C  8.05  9.30  9.89                                                             
C  8.05  9.30 23.07                                                             
C  8.05  9.30 36.25                                                             
C  8.05  9.30 49.44                                                             
C  8.05  9.30 62.62                                                             
C 12.08  6.97  9.89                                                             
C 12.08  6.97 23.07                                                             
C 12.08  6.97 36.25                                                             
C 12.08  6.97 49.44                                                             
C 12.08  6.97 62.62                                                             
C 16.10  4.65  9.89                                                             
C 16.10  4.65 23.07                                                             
C 16.10  4.65 36.25                                                             
C 16.10  4.65 49.44                                                             
C 16.10  4.65 62.62                                                             
C 20.13  2.32  9.89                                                             
C 20.13  2.32 23.07                                                             
C 20.13  2.32 36.25                                                             
C 20.13  2.32 49.44                                                             
C 20.13  2.32 62.62                                                             
C 24.16  0.00  9.89                                                             
C 24.16  0.00 23.07                                                             
C 24.16  0.00 36.25                                                             
C 24.16  0.00 49.44                                                             
C 24.16  0.00 62.62                                                             
C  4.03 16.27  9.89                                                             
C  4.03 16.27 23.07                                                             
C  4.03 16.27 36.25                                                             
C  4.03 16.27 49.44                                                             
C  4.03 16.27 62.62                                                             
C  8.05 13.95  9.89                                                             
C  8.05 13.95 23.07                                                             
C  8.05 13.95 36.25                                                             
C  8.05 13.95 49.44                                                             
C  8.05 13.95 62.62                                                             
C 12.08 11.62  9.89                                                             
C 12.08 11.62 23.07                                                             
C 12.08 11.62 36.25                                                             
C 12.08 11.62 49.44                                                             
C 12.08 11.62 62.62                                                             
C 16.10  9.30  9.89                                                             
C 16.10  9.30 23.07                                                             
C 16.10  9.30 36.25                                                             
C 16.10  9.30 49.44                                                             
C 16.10  9.30 62.62                                                             
C 20.13  6.97  9.89                                                             
C 20.13  6.97 23.07                                                             
C 20.13  6.97 36.25                                                             
C 20.13  6.97 49.44                                                             
C 20.13  6.97 62.62                                                             
C 24.16  4.65  9.89                                                             
C 24.16  4.65 23.07                                                             
C 24.16  4.65 36.25                                                             
C 24.16  4.65 49.44                                                             
C 24.16  4.65 62.62                                                             
C 28.18  2.32  9.89                                                             
C 28.18  2.32 23.07                                                             
C 28.18  2.32 36.25                                                             
C 28.18  2.32 49.44                                                             
C 28.18  2.32 62.62                                                             
C 12.08 16.27  9.89                                                             
C 12.08 16.27 23.07                                                             
C 12.08 16.27 36.25                                                             
C 12.08 16.27 49.44                                                             
C 12.08 16.27 62.62                                                             
C 16.10 13.95  9.89                                                             
C 16.10 13.95 23.07                                                             
C 16.10 13.95 36.25                                                             
C 16.10 13.95 49.44                                                             
C 16.10 13.95 62.62                                                             
C 20.13 11.62  9.89                                                             
C 20.13 11.62 23.07                                                             
C 20.13 11.62 36.25                                                             
C 20.13 11.62 49.44                                                             
C 20.13 11.62 62.62                                                             
C 24.16  9.30  9.89                                                             
C 24.16  9.30 23.07                                                             
C 24.16  9.30 36.25                                                             
C 24.16  9.30 49.44                                                             
C 24.16  9.30 62.62                                                             
C 28.18  6.97  9.89                                                             
C 28.18  6.97 23.07                                                             
C 28.18  6.97 36.25                                                             
C 28.18  6.97 49.44                                                             
C 28.18  6.97 62.62                                                             
C 20.13 16.27  9.89                                                             
C 20.13 16.27 23.07                                                             
C 20.13 16.27 36.25                                                             
C 20.13 16.27 49.44                                                             
C 20.13 16.27 62.62                                                             
C 24.16 13.95  9.89                                                             
C 24.16 13.95 23.07                                                             
C 24.16 13.95 36.25                                                             
C 24.16 13.95 49.44                                                             
C 24.16 13.95 62.62                                                             
C 28.18 11.62  9.89                                                             
C 28.18 11.62 23.07                                                             
C 28.18 11.62 36.25                                                             
C 28.18 11.62 49.44                                                             
C 28.18 11.62 62.62                                                             
C 28.18 16.27  9.89                                                             
C 28.18 16.27 23.07                                                             
C 28.18 16.27 36.25                                                             
C 28.18 16.27 49.44                                                             
C 28.18 16.27 62.62                                                             
C  1.34  2.32  3.30                                                             
C  1.34  2.32 16.48                                                             
C  1.34  2.32 29.66                                                             
C  1.34  2.32 42.85                                                             
C  1.34  2.32 56.03                                                             
C  5.37  0.00  3.30                                                             
C  5.37  0.00 16.48                                                             
C  5.37  0.00 29.66                                                             
C  5.37  0.00 42.85                                                             
C  5.37  0.00 56.03                                                             
C  1.34  6.97  3.30                                                             
C  1.34  6.97 16.48                                                             
C  1.34  6.97 29.66                                                             
C  1.34  6.97 42.85                                                             
C  1.34  6.97 56.03                                                             
C  5.37  4.65  3.30                                                             
C  5.37  4.65 16.48                                                             
C  5.37  4.65 29.66                                                             
C  5.37  4.65 42.85                                                             
C  5.37  4.65 56.03                                                             
C  9.39  2.32  3.30                                                             
C  9.39  2.32 16.48                                                             
C  9.39  2.32 29.66                                                             
C  9.39  2.32 42.85                                                             
C  9.39  2.32 56.03                                                             
C 13.42  0.00  3.30                                                             
C 13.42  0.00 16.48                                                             
C 13.42  0.00 29.66                                                             
C 13.42  0.00 42.85                                                             
C 13.42  0.00 56.03                                                             
C  1.34 11.62  3.30                                                             
C  1.34 11.62 16.48                                                             
C  1.34 11.62 29.66                                                             
C  1.34 11.62 42.85                                                             
C  1.34 11.62 56.03                                                             
C  5.37  9.30  3.30                                                             
C  5.37  9.30 16.48                                                             
C  5.37  9.30 29.66                                                             
C  5.37  9.30 42.85                                                             
C  5.37  9.30 56.03                                                             
C  9.39  6.97  3.30                                                             
C  9.39  6.97 16.48                                                             
C  9.39  6.97 29.66                                                             
C  9.39  6.97 42.85                                                             
C  9.39  6.97 56.03                                                             
C 13.42  4.65  3.30                                                             
C 13.42  4.65 16.48                                                             
C 13.42  4.65 29.66                                                             
C 13.42  4.65 42.85                                                             
C 13.42  4.65 56.03                                                             
C 17.45  2.32  3.30                                                             
C 17.45  2.32 16.48                                                             
C 17.45  2.32 29.66                                                             
C 17.45  2.32 42.85                                                             
C 17.45  2.32 56.03                                                             
C 21.47  0.00  3.30                                                             
C 21.47  0.00 16.48                                                             
C 21.47  0.00 29.66                                                             
C 21.47  0.00 42.85                                                             
C 21.47  0.00 56.03                                                             
C  1.34 16.27  3.30                                                             
C  1.34 16.27 16.48                                                             
C  1.34 16.27 29.66                                                             
C  1.34 16.27 42.85                                                             
C  1.34 16.27 56.03                                                             
C  5.37 13.95  3.30                                                             
C  5.37 13.95 16.48                                                             
C  5.37 13.95 29.66                                                             
C  5.37 13.95 42.85                                                             
C  5.37 13.95 56.03                                                             
C  9.39 11.62  3.30                                                             
C  9.39 11.62 16.48                                                             
C  9.39 11.62 29.66                                                             
C  9.39 11.62 42.85                                                             
C  9.39 11.62 56.03                                                             
C 13.42  9.30  3.30                                                             
C 13.42  9.30 16.48                                                             
C 13.42  9.30 29.66                                                             
C 13.42  9.30 42.85                                                             
C 13.42  9.30 56.03                                                             
C 17.45  6.97  3.30                                                             
C 17.45  6.97 16.48                                                             
C 17.45  6.97 29.66                                                             
C 17.45  6.97 42.85                                                             
C 17.45  6.97 56.03                                                             
C 21.47  4.65  3.30                                                             
C 21.47  4.65 16.48                                                             
C 21.47  4.65 29.66                                                             
C 21.47  4.65 42.85                                                             
C 21.47  4.65 56.03                                                             
C 25.50  2.32  3.30                                                             
C 25.50  2.32 16.48                                                             
C 25.50  2.32 29.66                                                             
C 25.50  2.32 42.85                                                             
C 25.50  2.32 56.03                                                             
C 29.52  0.00  3.30                                                             
C 29.52  0.00 16.48                                                             
C 29.52  0.00 29.66                                                             
C 29.52  0.00 42.85                                                             
C 29.52  0.00 56.03                                                             
C  9.39 16.27  3.30                                                             
C  9.39 16.27 16.48                                                             
C  9.39 16.27 29.66                                                             
C  9.39 16.27 42.85                                                             
C  9.39 16.27 56.03                                                             
C 13.42 13.95  3.30                                                             
C 13.42 13.95 16.48                                                             
C 13.42 13.95 29.66                                                             
C 13.42 13.95 42.85                                                             
C 13.42 13.95 56.03                                                             
C 17.45 11.62  3.30                                                             
C 17.45 11.62 16.48                                                             
C 17.45 11.62 29.66                                                             
C 17.45 11.62 42.85                                                             
C 17.45 11.62 56.03                                                             
C 21.47  9.30  3.30                                                             
C 21.47  9.30 16.48                                                             
C 21.47  9.30 29.66                                                             
C 21.47  9.30 42.85                                                             
C 21.47  9.30 56.03                                                             
C 25.50  6.97  3.30                                                             
C 25.50  6.97 16.48                                                             
C 25.50  6.97 29.66                                                             
C 25.50  6.97 42.85                                                             
C 25.50  6.97 56.03                                                             
C 29.52  4.65  3.30                                                             
C 29.52  4.65 16.48                                                             
C 29.52  4.65 29.66                                                             
C 29.52  4.65 42.85                                                             
C 29.52  4.65 56.03                                                             
C 17.45 16.27  3.30                                                             
C 17.45 16.27 16.48                                                             
C 17.45 16.27 29.66                                                             
C 17.45 16.27 42.85                                                             
C 17.45 16.27 56.03                                                             
C 21.47 13.95  3.30                                                             
C 21.47 13.95 16.48                                                             
C 21.47 13.95 29.66                                                             
C 21.47 13.95 42.85                                                             
C 21.47 13.95 56.03                                                             
C 25.50 11.62  3.30                                                             
C 25.50 11.62 16.48                                                             
C 25.50 11.62 29.66                                                             
C 25.50 11.62 42.85                                                             
C 25.50 11.62 56.03                                                             
C 29.52  9.30  3.30                                                             
C 29.52  9.30 16.48                                                             
C 29.52  9.30 29.66                                                             
C 29.52  9.30 42.85                                                             
C 29.52  9.30 56.03                                                             
C 25.50 16.27  3.30                                                             
C 25.50 16.27 16.48                                                             
C 25.50 16.27 29.66                                                             
C 25.50 16.27 42.85                                                             
C 25.50 16.27 56.03                                                             
C 29.52 13.95  3.30                                                             
C 29.52 13.95 16.48                                                             
C 29.52 13.95 29.66                                                             
C 29.52 13.95 42.85                                                             
C 29.52 13.95 56.03                                                             
C  2.68  0.00  9.89                                                             
C  2.68  0.00 23.07                                                             
C  2.68  0.00 36.25                                                             
C  2.68  0.00 49.44                                                             
C  2.68  0.00 62.62                                                             
C  2.68  4.65  9.89                                                             
C  2.68  4.65 23.07                                                             
C  2.68  4.65 36.25                                                             
C  2.68  4.65 49.44                                                             
C  2.68  4.65 62.62                                                             
C  6.71  2.32  9.89                                                             
C  6.71  2.32 23.07                                                             
C  6.71  2.32 36.25                                                             
C  6.71  2.32 49.44                                                             
C  6.71  2.32 62.62                                                             
C 10.74  0.00  9.89                                                             
C 10.74  0.00 23.07                                                             
C 10.74  0.00 36.25                                                             
C 10.74  0.00 49.44                                                             
C 10.74  0.00 62.62                                                             
C  2.68  9.30  9.89                                                             
C  2.68  9.30 23.07                                                             
C  2.68  9.30 36.25                                                             
C  2.68  9.30 49.44                                                             
C  2.68  9.30 62.62                                                             
C  6.71  6.97  9.89                                                             
C  6.71  6.97 23.07                                                             
C  6.71  6.97 36.25                                                             
C  6.71  6.97 49.44                                                             
C  6.71  6.97 62.62                                                             
C 10.74  4.65  9.89                                                             
C 10.74  4.65 23.07                                                             
C 10.74  4.65 36.25                                                             
C 10.74  4.65 49.44                                                             
C 10.74  4.65 62.62                                                             
C 14.76  2.32  9.89                                                             
C 14.76  2.32 23.07                                                             
C 14.76  2.32 36.25                                                             
C 14.76  2.32 49.44                                                             
C 14.76  2.32 62.62                                                             
C 18.79  0.00  9.89                                                             
C 18.79  0.00 23.07                                                             
C 18.79  0.00 36.25                                                             
C 18.79  0.00 49.44                                                             
C 18.79  0.00 62.62                                                             
C  2.68 13.95  9.89                                                             
C  2.68 13.95 23.07                                                             
C  2.68 13.95 36.25                                                             
C  2.68 13.95 49.44                                                             
C  2.68 13.95 62.62                                                             
C  6.71 11.62  9.89                                                             
C  6.71 11.62 23.07                                                             
C  6.71 11.62 36.25                                                             
C  6.71 11.62 49.44                                                             
C  6.71 11.62 62.62                                                             
C 10.74  9.30  9.89                                                             
C 10.74  9.30 23.07                                                             
C 10.74  9.30 36.25                                                             
C 10.74  9.30 49.44                                                             
C 10.74  9.30 62.62                                                             
C 14.76  6.97  9.89                                                             
C 14.76  6.97 23.07                                                             
C 14.76  6.97 36.25                                                             
C 14.76  6.97 49.44                                                             
C 14.76  6.97 62.62                                                             
C 18.79  4.65  9.89                                                             
C 18.79  4.65 23.07                                                             
C 18.79  4.65 36.25                                                             
C 18.79  4.65 49.44                                                             
C 18.79  4.65 62.62                                                             
C 22.81  2.32  9.89                                                             
C 22.81  2.32 23.07                                                             
C 22.81  2.32 36.25                                                             
C 22.81  2.32 49.44                                                             
C 22.81  2.32 62.62                                                             
C 26.84  0.00  9.89                                                             
C 26.84  0.00 23.07                                                             
C 26.84  0.00 36.25                                                             
C 26.84  0.00 49.44                                                             
C 26.84  0.00 62.62                                                             
C  6.71 16.27  9.89                                                             
C  6.71 16.27 23.07                                                             
C  6.71 16.27 36.25                                                             
C  6.71 16.27 49.44                                                             
C  6.71 16.27 62.62                                                             
C 10.74 13.95  9.89                                                             
C 10.74 13.95 23.07                                                             
C 10.74 13.95 36.25                                                             
C 10.74 13.95 49.44                                                             
C 10.74 13.95 62.62                                                             
C 14.76 11.62  9.89                                                             
C 14.76 11.62 23.07                                                             
C 14.76 11.62 36.25                                                             
C 14.76 11.62 49.44                                                             
C 14.76 11.62 62.62                                                             
C 18.79  9.30  9.89                                                             
C 18.79  9.30 23.07                                                             
C 18.79  9.30 36.25                                                             
C 18.79  9.30 49.44                                                             
C 18.79  9.30 62.62                                                             
C 22.81  6.97  9.89                                                             
C 22.81  6.97 23.07                                                             
C 22.81  6.97 36.25                                                             
C 22.81  6.97 49.44                                                             
C 22.81  6.97 62.62                                                             
C 26.84  4.65  9.89                                                             
C 26.84  4.65 23.07                                                             
C 26.84  4.65 36.25                                                             
C 26.84  4.65 49.44                                                             
C 26.84  4.65 62.62                                                             
C 30.86  2.32  9.89                                                             
C 30.86  2.32 23.07                                                             
C 30.86  2.32 36.25                                                             
C 30.86  2.32 49.44                                                             
C 30.86  2.32 62.62                                                             
C 14.76 16.27  9.89                                                             
C 14.76 16.27 23.07                                                             
C 14.76 16.27 36.25                                                             
C 14.76 16.27 49.44                                                             
C 14.76 16.27 62.62                                                             
C 18.79 13.95  9.89                                                             
C 18.79 13.95 23.07                                                             
C 18.79 13.95 36.25                                                             
C 18.79 13.95 49.44                                                             
C 18.79 13.95 62.62                                                             
C 22.81 11.62  9.89                                                             
C 22.81 11.62 23.07                                                             
C 22.81 11.62 36.25                                                             
C 22.81 11.62 49.44                                                             
C 22.81 11.62 62.62                                                             
C 26.84  9.30  9.89                                                             
C 26.84  9.30 23.07                                                             
C 26.84  9.30 36.25                                                             
C 26.84  9.30 49.44                                                             
C 26.84  9.30 62.62                                                             
C 30.86  6.97  9.89                                                             
C 30.86  6.97 23.07                                                             
C 30.86  6.97 36.25                                                             
C 30.86  6.97 49.44                                                             
C 30.86  6.97 62.62                                                             
C 22.81 16.27  9.89                                                             
C 22.81 16.27 23.07                                                             
C 22.81 16.27 36.25                                                             
C 22.81 16.27 49.44                                                             
C 22.81 16.27 62.62                                                             
C 26.84 13.95  9.89                                                             
C 26.84 13.95 23.07                                                             
C 26.84 13.95 36.25                                                             
C 26.84 13.95 49.44                                                             
C 26.84 13.95 62.62                                                             
C 30.86 11.62  9.89                                                             
C 30.86 11.62 23.07                                                             
C 30.86 11.62 36.25                                                             
C 30.86 11.62 49.44                                                             
C 30.86 11.62 62.62                                                             
C 30.86 16.27  9.89                                                             
C 30.86 16.27 23.07                                                             
C 30.86 16.27 36.25                                                             
C 30.86 16.27 49.44                                                             
C 30.86 16.27 62.62                                                             
%ENDBLOCK POSITIONS_ABS                                                         

--------------------------------------------------------------------------------
-------------------------------- END INPUT FILE --------------------------------
--------------------------------------------------------------------------------


 
<<<<<<<<<<<<<<<<<<<<<<<<<<<<<<<<< Full system >>>>>>>>>>>>>>>>>>>>>>>>>>>>>>>>>>
<<<<<<<<<<<<<<<<<<<<<<<<<<< PAW Dataset information >>>>>>>>>>>>>>>>>>>>>>>>>>>
File: ~/pp/paw/c_pbe_abinit.paw; rc = 1.25 bohr; shape type =  3; rshape = 1.25 bohr;
  Atomic number:  6;  ionic charge:  4.000000
    Partial Wave 1: l = 0
    Partial Wave 2: l = 0
    Partial Wave 3: l = 1
    Partial Wave 4: l = 1
  Core charge supplied for Nonlinear Core Corrections
<<<<<<<<<<<<<<<<<<<<<<<<<<<<<<<<<<<<<<< >>>>>>>>>>>>>>>>>>>>>>>>>>>>>>>>>>>>>>>

-------------------------- Atom counting information ---------------------------
Symbol    Natoms    Nngwfs    Nprojs
  C        640      2560      5120
.......   ......    ......    ......
Totals:    640      2560      5120
--------------------------------------------------------------------------------

=============================== PSINC grid sizes ===============================
                      Simulation cell:   63 x  35 x 130
                              FFT-box:   63 x  35 x 117
                                  PPD:    7 x   5 x   1
Grid space d1=  0.511269841270a0 (KE cutoff=  29.06054Eh = 790.77748eV)
Grid space d2=  0.531142857143a0 (KE cutoff=  26.92659Eh = 732.70972eV)
Grid space d3=  0.507076923077a0 (KE cutoff=  29.54312Eh = 803.90911eV)
================================================================================
  
WARNING in cell_grid_distribute:
Average of less than one 23-slab per node, so workload cannot be
equally balanced between nodes.

********************* Fourier parallelisation information **********************
       Coarse grid (whole simulation cell) dimensions:     63    35   130
          Real-space ('12') slabs/node (min max mean):      3     4     3
         Recip-space ('23') slabs/node (min max mean):      0     1     0
********************************************************************************

********************* Fourier parallelisation information **********************
       Double grid (whole simulation cell) dimensions:    126    70   260
          Real-space ('12') slabs/node (min max mean):      6     7     6
         Recip-space ('23') slabs/node (min max mean):      1     2     1
********************************************************************************

Atom SCF Calculation for C  : Z (AE atom) =   6 : Z (PS atom) =   4
Config String: 2s2 2p2
Orbitals (num,occ):  2     2.00 2.00
Orbitals   (num,l):  2        0    1
Real-space Grid (nr,dr,rmax): 1293    0.0069659443    9.0000000000
Spherical Bessel Basis (nsws,lmax,cutoff):   37    2  161.4736382572
Confining potential (l,width,scale):  0    3.0000000000  100.0000000000
Confining potential (l,width,scale):  1    3.0000000000  100.0000000000
  1         -5.4966243538   -1.3415066196    4.5135257941   -1.6613421942
  2         -5.4660395227   -1.4172174419    4.4326892861   -1.6365362708
  3         -5.4759582348   -1.4337557188    4.4144498970   -1.6324663609
  4         -5.4843804720   -1.4365219414    4.4114201180   -1.6322033818
  5         -5.4882713954   -1.4381734139    4.4096331461   -1.6320227940
  6         -5.4902132675   -1.4390636620    4.4086785626   -1.6319270645
  7         -5.4912093711   -1.4395303631    4.4081823351   -1.6318789226
  8         -5.4917264140   -1.4397726342    4.4079268833   -1.6318551036
  9         -5.4919964206   -1.4398979410    4.4077958777   -1.6318434025
 10         -5.4921379132   -1.4399626875    4.4077287721   -1.6318376788
 11         -5.4922122245   -1.4399961532    4.4076943935   -1.6318348878
 12         -5.4922513136   -1.4400134684    4.4076767658   -1.6318335308
 13         -5.4922719001   -1.4400224400    4.4076677156   -1.6318328728
 14         -5.4922827535   -1.4400270959    4.4076630621   -1.6318325547
 15         -5.4922884809   -1.4400295164    4.4076606653   -1.6318324014
 16         -5.4922915059   -1.4400307770    4.4076594286   -1.6318323279
 17         -5.4922931051   -1.4400314347    4.4076587894   -1.6318322927
 18         -5.4922939512   -1.4400317785    4.4076584583   -1.6318322760
 19         -5.4922943993   -1.4400319585    4.4076582865   -1.6318322681
 20         -5.4922946368   -1.4400320529    4.4076581972   -1.6318322644
 21         -5.4922947627   -1.4400321025    4.4076581507   -1.6318322627
 22         -5.4922948296   -1.4400321287    4.4076581265   -1.6318322619
Atom SCF converged after  22 iterations to a total energy of     -5.49229483

Determining parallel strategy ...
... using space-filling curve
... NGWF load balancing: max     64;  min     64;  average     64
... Projector load balancing: max    128;  min    128;  average    128
... done
Calculating Ewald energy ...
              Ewald: real-space energy =    9488.262882
        Ewald: reciprocal-space energy =       0.145035
         Ewald: (sum_charge)**2 Energy =   11167.625436
         Ewald: (sum_charge**2) Energy =     882.878311
                          Ewald Energy =   -2562.095829
Basis initialisation ...... NGWF spheres initialised
... Projector spheres initialised
... NGWF tight boxes initialised
... Projector tight boxes initialised
... Tight-boxes gathered
... NGWF basis size (local,global):     693268  27922112
... PAW projector initialisation
... done

============================= Charge Augmentation ==============================
                           Aug box size:   11 x  11 x  11
================================================================================

========================== Sparse matrix information ===========================
                        Overlap matrix filling:  42.19%
                        Density kernel filling: 100.00%
              NGWF-Proj overlap matrix filling:  12.19%
                    Aug Overlap matrix filling:  47.03%
                    Hamiltonian matrix filling:  47.03%
                  NGWF diagonal matrix filling:   0.16%
                             KS matrix filling: 100.00% 
                           KSKS matrix filling: 100.00% 
================================================================================

Sparse matrix initialisation ... done
NGWF initialisation ...... done
============ Calculation of NGWF S^-1 using Hotelling algorithm ================ 
         Iteration  |  Frobenius norm and Maximum abs value    (of I-S*S_n^-1)   
               1       0.49077141E+02     0.97616230E+00
               2       0.47861672E+02     0.95418088E+00
               3       0.46035616E+02     0.91483167E+00
               4       0.43663993E+02     0.84986958E+00
               5       0.40819379E+02     0.75352462E+00
               6       0.37495415E+02     0.68067061E+00
               7       0.34002376E+02     0.63216946E+00
               8       0.30658492E+02     0.59129184E+00
               9       0.27099689E+02     0.54705097E+00
              10       0.22609346E+02     0.47818031E+00
              11       0.16751108E+02     0.36879514E+00
              12       0.99689528E+01     0.22435809E+00
              13       0.40331167E+01     0.88531335E-01
              14       0.79278678E+00     0.15851863E-01
              15       0.37152531E-01     0.63029355E-03
              16       0.10838012E-03     0.13271423E-05
              17       0.14075140E-08     0.10338619E-10
              18       0.75297032E-13     0.43298698E-14
================================================================================
Calculating core density ...
================================= Core Density =================================
               Core den box size:   21 x  21 x  21
================================================================================
 ... done
Up spin density kernel initialisation ...... done

Writing density kernel to file "3.488156_GO_manual_4x64graphite.dkn" ... done

>>> Optimising kernel for current NGWFs:

--------------------------- Ensemble-DFT optimisation --------------------------
Running ScaLAPACK on   40 processor(s).

--------------------------------------------------------------------------------
  Iter                              Commutator    Free_energy(A=E-TS)     DeltaA
#    0                          0.000038877419   -3655.45173163542904  -3.66E+03

Step                       =       0.381966011250
Energy                     =   -3655.451701524832
Entropy (-TS)              =      -0.000030110699
Free energy (A=E-TS)       =   -3655.451731635429
Est. 0K Energy 0.5*(E+A)   =   -3655.451716580130
Residual Non-orthogonality =       0.000000000000
Residual N_electrons       =       0.000000000102

Spin          Integrated_Ne            Fermi_level     Delta_Fermi_level
   1      2559.999999999475         0.193730454105              1.94E-01

                           Spin 1          
     Orb      H-eigenvalues     Occupancies
       1 |    -0.5312328327    1.0000000000 | 
                          ------
    1276 |     0.1594953693    0.9999798157 | 
    1277 |     0.1601087946    0.9999755017 | 
    1278 |     0.1601210891    0.9999754064 | 
    1279 |     0.1604850607    0.9999724110 | 
    1280 |     0.1611079197    0.9999664145 | 
                 - Gap at zero temperature -
    1281 |     0.2289659071    0.0000147172 | 
    1282 |     0.2289730638    0.0000146840 | 
    1283 |     0.2290031060    0.0000145454 | 
    1284 |     0.2291936756    0.0000136959 | 
    1285 |     0.2292007764    0.0000136652 | 
                          ------
    2560 |     1.0278391803    0.0000000000 | 

                       |  Abs_value |  Threshold | Converged
     Delta_Free_energy |   3.66E+03 |   1.00E-06 |        No
     Delta_Energy      |   3.66E+03 |   1.00E-04 |        No
     Delta_Entropy     |   3.01E-05 |   1.00E-04 |       Yes
     Commutator        |   3.89E-05 |   1.00E-05 |        No
     Delta_Fermi_level |   1.94E-01 |   1.00E-03 |        No

  Line search of the free energy minimum:
  Step_type        Step             Free_energy   Predicted_free_energy
.   Initial    0.000000    -3655.45173163542904
.    Trial1    0.381966    -3655.45329976716084
.    Trial2    0.618034    -3655.45354124661571
. Quadratic    0.602547    -3655.45354233296393    -3655.45354244288728

--------------------------------------------------------------------------------
  Iter                              Commutator    Free_energy(A=E-TS)     DeltaA
#    1                          0.000021659970   -3655.45354233296393  -1.81E-03

Step                       =       0.602546904993
Energy                     =   -3655.453513180988
Entropy (-TS)              =      -0.000029152057
Free energy (A=E-TS)       =   -3655.453542332964
Est. 0K Energy 0.5*(E+A)   =   -3655.453527756976
Residual Non-orthogonality =       0.000000000000
Residual N_electrons       =       0.000000000082

Spin          Integrated_Ne            Fermi_level     Delta_Fermi_level
   1      2559.999999999580         0.194683524322              9.53E-04

                           Spin 1          
     Orb      H-eigenvalues     Occupancies
       1 |    -0.5320321504    1.0000000000 | 
                          ------
    1276 |     0.1604318142    0.9999799214 | 
    1277 |     0.1608816958    0.9999768565 | 
    1278 |     0.1608993594    0.9999767271 | 
    1279 |     0.1614306282    0.9999724763 | 
    1280 |     0.1618951882    0.9999681276 | 
                 - Gap at zero temperature -
    1281 |     0.2299580000    0.0000145370 | 
    1282 |     0.2299944155    0.0000143708 | 
    1283 |     0.2300167527    0.0000142698 | 
    1284 |     0.2302145892    0.0000134056 | 
    1285 |     0.2302247693    0.0000133626 | 
                          ------
    2560 |     1.0289997417    0.0000000000 | 

                       |  Abs_value |  Threshold | Converged
     Delta_Free_energy |   1.81E-03 |   1.00E-06 |        No
     Delta_Energy      |   1.81E-03 |   1.00E-04 |        No
     Delta_Entropy     |   9.59E-07 |   1.00E-04 |       Yes
     Commutator        |   2.17E-05 |   1.00E-05 |        No
     Delta_Fermi_level |   9.53E-04 |   1.00E-03 |       Yes

  Line search of the free energy minimum:
  Step_type        Step             Free_energy   Predicted_free_energy
.   Initial    0.000000    -3655.45354233296393
.    Trial1    0.602547    -3655.45314233517047
.    Trial2    0.230152    -3655.45395338885328
. Quadratic    0.250819    -3655.45395612970788    -3655.45395619867895

--------------------------------------------------------------------------------
  Iter                              Commutator    Free_energy(A=E-TS)     DeltaA
#    2                          0.000011733522   -3655.45395612970788  -4.14E-04

Step                       =       0.250819111370
Energy                     =   -3655.453927164197
Entropy (-TS)              =      -0.000028965527
Free energy (A=E-TS)       =   -3655.453956129708
Est. 0K Energy 0.5*(E+A)   =   -3655.453941646952
Residual Non-orthogonality =       0.000000000000
Residual N_electrons       =       0.000000000017

Spin          Integrated_Ne            Fermi_level     Delta_Fermi_level
   1      2559.999999999913         0.194835703814              1.52E-04

                           Spin 1          
     Orb      H-eigenvalues     Occupancies
       1 |    -0.5321675082    1.0000000000 | 
                          ------
    1276 |     0.1605322162    0.9999802470 | 
    1277 |     0.1610365511    0.9999768369 | 
    1278 |     0.1610536785    0.9999767113 | 
    1279 |     0.1615297964    0.9999729332 | 
    1280 |     0.1620482431    0.9999681188 | 
                 - Gap at zero temperature -
    1281 |     0.2301485835    0.0000143618 | 
    1282 |     0.2301845080    0.0000141998 | 
    1283 |     0.2302050299    0.0000141081 | 
    1284 |     0.2304115721    0.0000132173 | 
    1285 |     0.2304215250    0.0000131758 | 
                          ------
    2560 |     1.0291800570    0.0000000000 | 

                       |  Abs_value |  Threshold | Converged
     Delta_Free_energy |   4.14E-04 |   1.00E-06 |        No
     Delta_Energy      |   4.14E-04 |   1.00E-04 |        No
     Delta_Entropy     |   1.87E-07 |   1.00E-04 |       Yes
     Commutator        |   1.17E-05 |   1.00E-05 |        No
     Delta_Fermi_level |   1.52E-04 |   1.00E-03 |       Yes

  Line search of the free energy minimum:
  Step_type        Step             Free_energy   Predicted_free_energy
.   Initial    0.000000    -3655.45395612970788
.    Trial1    0.250819    -3655.45406749311360
.    Trial2    0.536981    -3655.45405516960682
. Quadratic    0.370161    -3655.45408038525829    -3655.45408041158180

--------------------------------------------------------------------------------
  Iter                              Commutator    Free_energy(A=E-TS)     DeltaA
#    3                          0.000008099250   -3655.45408038525829  -1.24E-04

Step                       =       0.370160743039
Energy                     =   -3655.454051619516
Entropy (-TS)              =      -0.000028765257
Free energy (A=E-TS)       =   -3655.454080385258
Est. 0K Energy 0.5*(E+A)   =   -3655.454066002387
Residual Non-orthogonality =       0.000000000000
Residual N_electrons       =      -0.000000000486

Spin          Integrated_Ne            Fermi_level     Delta_Fermi_level
   1      2560.000000002490         0.195004829898              1.69E-04

                           Spin 1          
     Orb      H-eigenvalues     Occupancies
       1 |    -0.5323083638    1.0000000000 | 
                          ------
    1276 |     0.1606652736    0.9999804707 | 
    1277 |     0.1611924971    0.9999769331 | 
    1278 |     0.1612089947    0.9999768127 | 
    1279 |     0.1616630047    0.9999732384 | 
    1280 |     0.1622036981    0.9999682561 | 
                 - Gap at zero temperature -
    1281 |     0.2303473845    0.0000142278 | 
    1282 |     0.2303826448    0.0000140703 | 
    1283 |     0.2304024922    0.0000139824 | 
    1284 |     0.2306132661    0.0000130821 | 
    1285 |     0.2306230123    0.0000130419 | 
                          ------
    2560 |     1.0293997209    0.0000000000 | 

                       |  Abs_value |  Threshold | Converged
     Delta_Free_energy |   1.24E-04 |   1.00E-06 |        No
     Delta_Energy      |   1.24E-04 |   1.00E-04 |        No
     Delta_Entropy     |   2.00E-07 |   1.00E-04 |       Yes
     Commutator        |   8.10E-06 |   1.00E-05 |       Yes
     Delta_Fermi_level |   1.69E-04 |   1.00E-03 |       Yes

  Line search of the free energy minimum:
  Step_type        Step             Free_energy   Predicted_free_energy
.   Initial    0.000000    -3655.45408038525829
.    Trial1    0.370161    -3655.45412358086696
.    Trial2    0.610738    -3655.45403482714164
. Quadratic    0.258461    -3655.45413352238256    -3655.45413350149056

--------------------------------------------------------------------------------
  Iter                              Commutator    Free_energy(A=E-TS)     DeltaA
#    4                          0.000005337040   -3655.45413352238256  -5.31E-05

Step                       =       0.258461233579
Energy                     =   -3655.454104842806
[...]
 C   275 -- C   555       -0.10      5.37000
 C   274 -- C   554       -0.10      5.37000
 C   273 -- C   553       -0.10      5.37000
 C   272 -- C   552       -0.10      5.37000
 C   271 -- C   551       -0.10      5.37000
 C   270 -- C   550       -0.10      5.37000
 C   269 -- C   549       -0.10      5.37000
 C   268 -- C   548       -0.10      5.37000
 C   267 -- C   547       -0.10      5.37000
 C   266 -- C   546       -0.10      5.37000
 C   130 -- C   465       -0.10      5.37000
 C   129 -- C   464       -0.10      5.37000
 C   128 -- C   463       -0.10      5.37000
 C   127 -- C   462       -0.10      5.37000
 C   126 -- C   461       -0.10      5.37000
 C   240 -- C   525       -0.10      5.37000
 C   239 -- C   524       -0.10      5.37000
 C   238 -- C   523       -0.10      5.37000
 C   237 -- C   522       -0.10      5.37000
 C   236 -- C   521       -0.10      5.37000
 C    23 -- C   478       -0.10      5.37202
 C    49 -- C   469       -0.10      5.37202
 C    48 -- C   468       -0.10      5.37202
 C    47 -- C   467       -0.10      5.37202
 C    22 -- C   477       -0.10      5.37202
 C    46 -- C   466       -0.10      5.37202
 C    21 -- C   476       -0.10      5.37202
 C    25 -- C   480       -0.10      5.37202
 C    24 -- C   479       -0.10      5.37202
 C    50 -- C   470       -0.10      5.37202
 C    24 -- C   449       -0.10      5.37202
 C     6 -- C   416       -0.10      5.37202
 C    23 -- C   448       -0.10      5.37202
 C    22 -- C   447       -0.10      5.37202
 C    10 -- C   470       -0.10      5.37202
 C     5 -- C   450       -0.10      5.37202
 C    21 -- C   446       -0.10      5.37202
 C    10 -- C   420       -0.10      5.37202
 C     9 -- C   469       -0.10      5.37202
 C     9 -- C   419       -0.10      5.37202
 C     8 -- C   468       -0.10      5.37202
 C     4 -- C   449       -0.10      5.37202
 C     8 -- C   418       -0.10      5.37202
 C   285 -- C   580       -0.10      5.37202
 C   284 -- C   579       -0.10      5.37202
 C   283 -- C   578       -0.10      5.37202
 C   282 -- C   577       -0.10      5.37202
 C   281 -- C   576       -0.10      5.37202
 C     2 -- C   447       -0.10      5.37202
 C     7 -- C   467       -0.10      5.37202
 C   260 -- C   605       -0.10      5.37202
 C   259 -- C   604       -0.10      5.37202
 C   258 -- C   603       -0.10      5.37202
 C   257 -- C   602       -0.10      5.37202
 C   256 -- C   601       -0.10      5.37202
 C     7 -- C   417       -0.10      5.37202
 C     1 -- C   446       -0.10      5.37202
 C     6 -- C   466       -0.10      5.37202
 C    25 -- C   450       -0.10      5.37202
 C     3 -- C   448       -0.10      5.37202
 C   219 -- C   569       -0.10      5.37202
 C   218 -- C   568       -0.10      5.37202
 C   217 -- C   567       -0.10      5.37202
 C   216 -- C   566       -0.10      5.37202
 C   250 -- C   540       -0.10      5.37202
 C   249 -- C   539       -0.10      5.37202
 C   248 -- C   538       -0.10      5.37202
 C   247 -- C   537       -0.10      5.37202
 C   246 -- C   536       -0.10      5.37202
 C   220 -- C   570       -0.10      5.37202
 C   205 -- C   550       -0.10      5.37202
 C   204 -- C   549       -0.10      5.37202
 C   203 -- C   548       -0.10      5.37202
 C   202 -- C   547       -0.10      5.37202
 C   201 -- C   546       -0.10      5.37202
 C    95 -- C   365       -0.10      5.37202
 C    94 -- C   364       -0.10      5.37202
 C    93 -- C   363       -0.10      5.37202
 C    92 -- C   362       -0.10      5.37202
 C    91 -- C   361       -0.10      5.37202
 C    65 -- C   395       -0.10      5.37202
 C    64 -- C   394       -0.10      5.37202
 C    63 -- C   393       -0.10      5.37202
 C    30 -- C   355       -0.10      5.37202
 C    62 -- C   392       -0.10      5.37202
 C    61 -- C   391       -0.10      5.37202
 C    29 -- C   354       -0.10      5.37202
 C   260 -- C   550       -0.10      5.37202
 C   259 -- C   549       -0.10      5.37202
 C    28 -- C   353       -0.10      5.37202
 C   258 -- C   548       -0.10      5.37202
 C   257 -- C   547       -0.10      5.37202
 C   256 -- C   546       -0.10      5.37202
 C    27 -- C   352       -0.10      5.37202
 C    26 -- C   351       -0.10      5.37202
 C    55 -- C   335       -0.10      5.37202
 C    54 -- C   334       -0.10      5.37202
 C    53 -- C   333       -0.10      5.37202
 C   230 -- C   580       -0.10      5.37202
 C   230 -- C   525       -0.10      5.37202
 C   229 -- C   579       -0.10      5.37202
 C   229 -- C   524       -0.10      5.37202
 C   228 -- C   578       -0.10      5.37202
 C    52 -- C   332       -0.10      5.37202
 C   228 -- C   523       -0.10      5.37202
 C   227 -- C   577       -0.10      5.37202
 C   227 -- C   522       -0.10      5.37202
 C   226 -- C   576       -0.10      5.37202
 C   226 -- C   521       -0.10      5.37202
 C    51 -- C   331       -0.10      5.37202
 C   220 -- C   515       -0.10      5.37202
 C   219 -- C   514       -0.10      5.37202
 C   218 -- C   513       -0.10      5.37202
 C   217 -- C   512       -0.10      5.37202
 C   216 -- C   511       -0.10      5.37202
 C   195 -- C   540       -0.10      5.37202
 C   195 -- C   500       -0.10      5.37202
 C   194 -- C   539       -0.10      5.37202
 C   194 -- C   499       -0.10      5.37202
 C   193 -- C   538       -0.10      5.37202
 C   193 -- C   498       -0.10      5.37202
 C   192 -- C   537       -0.10      5.37202
 C   192 -- C   497       -0.10      5.37202
 C   191 -- C   536       -0.10      5.37202
 C   191 -- C   496       -0.10      5.37202
 C   180 -- C   515       -0.10      5.37202
 C   179 -- C   514       -0.10      5.37202
 C   178 -- C   513       -0.10      5.37202
 C   177 -- C   512       -0.10      5.37202
 C   176 -- C   511       -0.10      5.37202
 C   150 -- C   440       -0.10      5.37202
 C   149 -- C   439       -0.10      5.37202
 C   148 -- C   438       -0.10      5.37202
 C   147 -- C   437       -0.10      5.37202
 C   146 -- C   436       -0.10      5.37202
 C   135 -- C   460       -0.10      5.37202
 C   134 -- C   459       -0.10      5.37202
 C   133 -- C   458       -0.10      5.37202
 C   132 -- C   457       -0.10      5.37202
 C   131 -- C   456       -0.10      5.37202
 C    11 -- C   331       -0.10      5.37202
 C    95 -- C   425       -0.10      5.37202
 C    94 -- C   424       -0.10      5.37202
 C    93 -- C   423       -0.10      5.37202
 C    92 -- C   422       -0.10      5.37202
 C    91 -- C   421       -0.10      5.37202
 C    85 -- C   355       -0.10      5.37202
 C    40 -- C   365       -0.10      5.37202
 C    84 -- C   354       -0.10      5.37202
 C    83 -- C   353       -0.10      5.37202
 C    82 -- C   352       -0.10      5.37202
 C    39 -- C   364       -0.10      5.37202
 C    81 -- C   351       -0.10      5.37202
 C    38 -- C   363       -0.10      5.37202
 C    37 -- C   362       -0.10      5.37202
 C    36 -- C   361       -0.10      5.37202
 C    15 -- C   335       -0.10      5.37202
 C    65 -- C   345       -0.10      5.37202
 C    64 -- C   344       -0.10      5.37202
 C    63 -- C   343       -0.10      5.37202
 C    30 -- C   325       -0.10      5.37202
 C    62 -- C   342       -0.10      5.37202
 C    14 -- C   334       -0.10      5.37202
 C    61 -- C   341       -0.10      5.37202
 C    29 -- C   324       -0.10      5.37202
 C    28 -- C   323       -0.10      5.37202
 C    13 -- C   333       -0.10      5.37202
 C    27 -- C   322       -0.10      5.37202
 C   120 -- C   395       -0.10      5.37202
 C    55 -- C   385       -0.10      5.37202
 C   119 -- C   394       -0.10      5.37202
 C   118 -- C   393       -0.10      5.37202
 C   117 -- C   392       -0.10      5.37202
 C    54 -- C   384       -0.10      5.37202
 C    26 -- C   321       -0.10      5.37202
 C   116 -- C   391       -0.10      5.37202
 C    53 -- C   383       -0.10      5.37202
 C    12 -- C   332       -0.10      5.37202
 C    52 -- C   382       -0.10      5.37202
 C    51 -- C   381       -0.10      5.37202
 C   106 -- C   436       -0.10      5.37202
 C   106 -- C   376       -0.10      5.37202
 C    80 -- C   410       -0.10      5.37202
 C    79 -- C   409       -0.10      5.37202
 C    78 -- C   408       -0.10      5.37202
 C    77 -- C   407       -0.10      5.37202
 C    76 -- C   406       -0.10      5.37202
 C   135 -- C   410       -0.10      5.37202
 C   134 -- C   409       -0.10      5.37202
 C   133 -- C   408       -0.10      5.37202
 C   132 -- C   407       -0.10      5.37202
 C   131 -- C   406       -0.10      5.37202
 C   110 -- C   440       -0.10      5.37202
 C   110 -- C   380       -0.10      5.37202
 C   109 -- C   439       -0.10      5.37202
 C   109 -- C   379       -0.10      5.37202
 C   108 -- C   438       -0.10      5.37202
 C   108 -- C   378       -0.10      5.37202
 C   107 -- C   437       -0.10      5.37202
 C   107 -- C   377       -0.10      5.37202
 C   215 -- C   635       -0.10      5.38000
 C   214 -- C   634       -0.10      5.38000
 C   213 -- C   633       -0.10      5.38000
 C   212 -- C   632       -0.10      5.38000
 C   211 -- C   631       -0.10      5.38000
 C   190 -- C   620       -0.10      5.38000
 C   189 -- C   619       -0.10      5.38000
 C   188 -- C   618       -0.10      5.38000
 C   187 -- C   617       -0.10      5.38000
 C   186 -- C   616       -0.10      5.38000
 C   175 -- C   595       -0.10      5.38000
 C   174 -- C   594       -0.10      5.38000
 C   173 -- C   593       -0.10      5.38000
 C   172 -- C   592       -0.10      5.38000
 C   171 -- C   591       -0.10      5.38000
 C   245 -- C   640       -0.10      5.38000
 C   244 -- C   639       -0.10      5.38000
 C   243 -- C   638       -0.10      5.38000
 C   242 -- C   637       -0.10      5.38000
 C   241 -- C   636       -0.10      5.38000
==================================================


=================== Orbital energy and occupancy information ===================

      Total number of orbitals:    2560
        Occupancy sum (kernel):    1279.999999999
   Occupancy sum (eigenvalues):    1279.999999999
                 HOMO-LUMO gap:       0.064569750 Eh
                 Mid-gap level:       0.245742509 Eh

                        Orbital | Energy (Eh) | Occupancy
                            1    -0.479157643   1.0000000
                        .......   ...........   .........
                         1271     0.208204766   0.9999892
                         1272     0.208213332   0.9999892
                         1273     0.208676756   0.9999875
                         1274     0.208685303   0.9999874
                         1275     0.211948640   0.9999648
                         1276     0.211957959   0.9999647
                         1277     0.212412330   0.9999592
                         1278     0.212421594   0.9999591
                         1279     0.213000941   0.9999509
                         1280     0.213457634   0.9999433
                        ....... -- gap at 0K -- .........
                         1281     0.278027384   0.0000246
                         1282     0.278030345   0.0000245
                         1283     0.278283147   0.0000226
                         1284     0.278286090   0.0000226
                         1285     0.278487022   0.0000213
                         1286     0.278494717   0.0000212
                         1287     0.278755286   0.0000195
                         1288     0.278762821   0.0000195
                         1289     0.278873316   0.0000188
                         1290     0.279145474   0.0000173
                        .......   ...........   .........
                         2560     1.137710987   0.0000000

================================================================================

===================== Writing canonical molecular orbitals =====================
| Orbital  Energy (eV)  Norm     |
| HOMO      5.80847778  1.000000 | Writing "3.488156_GO_manual_4x64graphite_HOMO.cube" ... done
Writing "3.488156_GO_manual_4x64graphite_HOMO.dx" ... done
| LUMO      7.56551009  1.000000 | Writing "3.488156_GO_manual_4x64graphite_LUMO.cube" ... done
Writing "3.488156_GO_manual_4x64graphite_LUMO.dx" ... done
================================================================================
 
===================== Density of States (DOS) calculation ======================
Writing "3.488156_GO_manual_4x64graphite_DOS.txt" ...  done
================================================================================
 
Writing bands to file "3.488156_GO_manual_4x64graphite.val_bands" ... done
 
================ Projected Density of States (pDOS) calculation ================
 
Constructing AM resolved functions  ...... done
Writing NGWF plot files in formats: CUBE DX ...  done
 
Performing overlap integrals ...  done
 
Computing pDOS weights ...  done
 
All bands spilling parameter =   3.54 %
Occupancy-weighted spilling parameter =   0.92 %
 
 => Outputting data for OptaDOS <=
 
Writing pDOS weights to file "3.488156_GO_manual_4x64graphite.val_pdos_bin" ... done
 
Writing band gradients to file "3.488156_GO_manual_4x64graphite.val_dome_bin" ... done
 
Writing Castep output cell file to "3.488156_GO_manual_4x64graphite-out.cell" ... done
 
 => Computing Gaussian smeared pDOS <= 
Writing "3.488156_GO_manual_4x64graphite_PDOS.txt" ...  done
 
 => Computing Occupancy-weighted Gaussian smeared pDOS <= 
Writing "3.488156_GO_manual_4x64graphite_occ_PDOS.txt" ...  done
  => Band centres: 
 S band centre of group 1:  -13.873624 eV
 P band centre of group 1:   -6.725313 eV
  Band centres done. <=
  => Integrated number of electrons in each AM band: 
 S num electrons of group 1:  577.259633
 P num electrons of group 1: 1959.228284
  Integrated number of electrons done. <=
================================================================================

------------------------------ TIMING INFORMATION ------------------------------
AVERAGE TIME:    3562.469s on     40 node(s)                                    
TOTAL TIME:      3562.470s on     40 node(s)                                    
================= AVERAGE TIMINGS FROM ALL NODES (CUMULATIVE) ==================
|| TAG                                    #calls    cpu time   %total  Gflops ||
|| work_imbalance                       :     1        0.00s   0.000%  ------ ||
|| paw_tcore_hartree_on_grid            :     1        0.00s   0.000%  ------ ||
|| paw_tcore_density                    :     1        0.01s   0.000%  ------ ||
|| paw_sphere_density_on_grid           :     1        0.01s   0.000%  ------ ||
|| sparse_set_to_garbage                :   159        0.02s   0.001%  ------ ||
|| paw_dij_hartree                      :   319        0.04s   0.001%  ------ ||
|| pseudo_make_structure_factor         :     1        0.05s   0.002%  ------ ||
|| basis_extract_function_from_box      :  1792        0.08s   0.002%  ------ ||
|| paw_species_calc_proj_prec_mat       :     1        0.12s   0.003%  ------ ||
|| paw_dataset_init                     :     1        0.15s   0.004%  ------ ||
|| density_init_guess_real              :     1        0.17s   0.005%  ------ ||
|| ngwfs_initialise_from_radial         :     2        0.67s   0.019%  ------ ||
|| sparse_init                          :     1        0.91s   0.025%  ------ ||
|| restart_kernel_write                 :    15        0.91s   0.025%  ------ ||
|| dense_normal_eigensolve              :     1        0.97s   0.027%  ------ ||
|| hartree_on_grid                      :   239        1.24s   0.035%  ------ ||
|| projectors_init_fftbox_recip         :   141        2.73s   0.077%  ------ ||
|| ewald_calculate_energy               :     1        2.79s   0.078%  ------ ||
|| fourier_apply_box_pair               :  2656        4.39s   0.123% 560.578 ||
|| basis_copy_function_to_box           : 22784        4.95s   0.139%  ------ ||
|| augmentation_screen_dij              :   244        5.36s   0.150%  ------ ||
|| sw_init                              :     1        6.73s   0.189%  ------ ||
|| sparse_embed_hotelling_invert_embed  :    27        7.64s   0.214%  ------ ||
|| ngwf_gradient_coeffs                 :    14        9.92s   0.278%  ------ ||
|| sparse_trace                         :  2884       13.25s   0.372%  ------ ||
|| fourier_apply_cell_backward          :  7380       13.48s   0.378%  67.016 ||
|| fourier_apply_cell_forward           :  6903       14.52s   0.408%  58.182 ||
|| cell_grid_extract_box_real           :  9612       15.99s   0.449%  ------ ||
|| cell_grid_deposit_box_real           : 30768       20.64s   0.579%  ------ ||
|| paw_dij_xc                           :   319       21.19s   0.595%  ------ ||
|| aug_nonlocal_mat                     :   305       30.93s   0.868%  ------ ||
|| density_fftbox_deposit_to_cell       : 15296       41.77s   1.172%  ------ ||
|| augmentation_density_on_grid         :   239       42.69s   1.198%  ------ ||
|| hamiltonian_energy_components        :     3       47.46s   1.332%  ------ ||
|| function_ops_brappd_ketppd           :    56       52.05s   1.461%  ------ ||
|| eigenstates_pdos                     :     1       52.60s   1.477%  ------ ||
|| eigenstates_calculate                :     1       56.73s   1.592%  ------ ||
|| nlxc_vdw_energy                      :   476       59.90s   1.682%  ------ ||
|| projectors_func_ovlp_box             :    28       62.50s   1.754%  ------ ||
|| xc_energy_potential                  :   238       68.56s   1.924%  ------ ||
|| integrals_kinetic                    :    27       89.41s   2.510%  ------ ||
|| dense_eigensolve                     :   208      100.30s   2.815%  ------ ||
|| properties_calculate                 :     1      102.57s   2.879%  ------ ||
|| sparse_product                       :  2937      117.42s   3.296%  ------ ||
|| potential_apply_to_ngwf_batch        :   300      118.25s   3.319%  ------ ||
|| restart_ngwfs_tightbox_output        :    13      180.77s   5.074%  ------ ||
|| basis_dot_function_with_box          : 7.236M     201.55s   5.658%  ------ ||
|| fourier_apply_box                    : 71920      223.18s   6.265% 977.512 ||
|| edft_diag_ngwf_ham                   :   207      227.32s   6.381%  ------ ||
|| integrals_locpot_mat_els_batch       :   300      255.51s   7.172%  ------ ||
|| projectors_gradient_batch            :    56      256.01s   7.186%  ------ ||
|| density_fftbox_interpolate_multiply  : 15296      297.14s   8.341%  ------ ||
|| projectors_grad_precond_batch        :    56      352.03s   9.882%  ------ ||
|| integrals_locpot_dbl_grid            :    75      375.02s  10.527%  ------ ||
|| density_batch_interp_deposit         :   956      377.50s  10.597%  ------ ||
|| edft_apply_smearing_operator         :   207      444.13s  12.467%  ------ ||
|| basis_add_function_to_box            : 20.39M     549.51s  15.425%  ------ ||
|| ngwf_gradient_build_batch            :    56      650.62s  18.263%  ------ ||
|| density_batch_row_sums               :   956      733.48s  20.589%  ------ ||
|| ngwf_gradient_batch                  :    56      862.98s  24.224%  ------ ||
|| ngwf_gradient_lnv                    :    14      889.75s  24.976%  ------ ||
|| density_on_dbl_grid                  :   239     1123.57s  31.539%  ------ ||
|| hamiltonian_lhxc_calculate           :   234     1213.11s  34.053%  ------ ||
|| edft_calculate                       :    14     2012.91s  56.503%  ------ ||
|| ngwf_cg_optimise                     :     1     3435.60s  96.439%  ------ ||
|| total_time                           :     1     3562.47s 100.000%  ------ ||
================================================================================
Overhead of generating timer report: 
- 0 ms averaging over threads,
- 5 ms ensuring consistency across MPI ranks,
- 0 ms printing in order.

Job completed: 26-02-2020 02:21 (-0000)

