 +---------------------------------------------------------------+
 |                                                               |
 |        ####### #     # ####### ####### ####### ######         |
 |        #     # ##    # #          #    #       #     #        |
 |        #     # # #   # #          #    #       #     #        |
 |        #     # #  #  # #####      #    #####   ######         |
 |        #     # #   # # #          #    #       #              |
 |        #     # #    ## #          #    #       #              |
 |        ####### #     # #######    #    ####### #              |
 |                                                               |
 |        Linear-Scaling Ab Initio Total Energy Program          |
 |                                                               |
 |          Release for academic collaborators of ODG            |
 |                                             Version 5.3.2.12  |
 |                                                               |
 +---------------------------------------------------------------+
 |                                                               |
 |  Authors:                                                     |
 |  Jacek Dziedzic, Peter D. Haynes, Nicholas D. M. Hine,        |
 |  Arash. A. Mostofi, Mike C. Payne and Chris-Kriton Skylaris   |
 |                                                               |
 |  Contributors:                                                |
 |  J. Aarons, L. Andrinopoulos, P. W. Avraam, R. A. Bell,       |
 |  A. Bhandari, G. A. Bramley, R. J. Charlton, S. J. Clark,     |
 |  R. J. Clements, G. C. Constantinescu, F. Corsetti,           |
 |  N. Corsini, O. Dieguez, S. M. M. Dubois, K. K. B. Duff,      |
 |  J. M. Escartin, A. Greco, H. Helal, Q. O. Hill, L. P. Lee,   |
 |  J.-H. Li, E. B. Linscott, G. Moynihan, D. D. O`Regan,        |
 |  O. K. Okan, M. J. S. Phipps, C. J. Pickard,                  |
 |  J. C. A. Prentice, M. I. J. Probert, L. E. Ratcliff,         |
 |  M. Robinson, A. Ruiz Serrano, J. S. Spencer, E. W. Tait,     |
 |  G. Teobaldi, D. Turban, V. Vitale, K. A. Wilkinson,          |
 |  C. Weber, J. C. Womack, N. Yeung and T. J. Zuehlsdorff       |
 |                                                               |
 |                                   Copyright (c) 2004-2020     |
 |                                                               |
 |  Please cite:                                                 |
 |  "Introducing ONETEP: Linear-scaling density functional       |
 |   simulations on parallel computers".                         |
 |   C.-K. Skylaris, P. D. Haynes, A. A. Mostofi, M. C. Payne.   |
 |   J. Chem. Phys. 122 084119 (2005).                           |
 |                                                               |
 |          in all publications arising from your use of ONETEP. |
 |                                                               |
 +---------------------------------------------------------------+
 |                                                               |
 |   ONETEP is based on developments described in the following  |
 |   publications:                                               |
 |                                                               |
 |  "Nonorthogonal generalized Wannier function pseudopotential  |
 |   plane-wave method".                                         |
 |   C.-K. Skylaris, A. A. Mostofi, P. D. Haynes, O. Dieguez,    |
 |   M. C. Payne.                                                |
 |   Phys. Rev. B 66 035119 (2002).                              |
 |                                                               |
 |  "Preconditioned iterative minimization for linear-scaling    |
 |   electronic structure calculations".                         |
 |   A. A. Mostofi, P. D. Haynes, C.-K. Skylaris, M. C. Payne.   |
 |   J. Chem. Phys. 119(17), pp.8842-8848 (2003).                |
 |                                                               |
 |  "Total-energy calculations on a real space grid with         |
 |   localized functions and a plane-wave basis".                |
 |   A. A. Mostofi, C.-K. Skylaris, P. D. Haynes, M. C. Payne.   |
 |   Comput. Phys. Commun. 147, pp.788-802 (2002).               |
 |                                                               |
 |  "Accurate kinetic energy evaluation in electronic structure  |
 |   calculations with localized functions on real space grids"  |
 |   C.-K. Skylaris, A. A. Mostofi, P. D. Haynes, C. J. Pickard, |
 |   M. C. Payne.                                                |
 |   Comput. Phys. Commun. 140, pp.315-322 (2001).               |
 |                                                               |
 |  "Accurate ionic forces and geometry optimization in linear-  |
 |   scaling density-functional theory with local orbitals"      |
 |   N. D. M. Hine, M. Robinson, P. D. Haynes, C.-K. Skylaris,   |
 |   M. C. Payne, and A. A. Mostofi.                             |
 |   Phys. Rev. B 83 195102 (2011).                              |
 |                                                               |
 +---------------------------------------------------------------+

Job started: 26-02-2020 01:27 (-0000)
 
Reading parameters from file "3.5418184_GO_manual_4x64graphite.dat" ...

WARNING: "cutoff_energy" not specified, but "psinc_spacing" specified.
         Using the latter to set the KE cutoff energy to  732.32021eV,
         thus *overriding* the default.

... done

If your calculation crashes here, before "Checking processes and threads..."
is displayed, then your stack size is insufficient.
If so, use "ulimit -s unlimited" at runtime.
You can disable this check with "check_stack_size F".

Checking processes and threads...
   Determining the default number of threads...
      No default threads set at compilation time: defaulting to 1.
      OpenMP library call suggests 4 threads.
      Hybrid MPI-OpenMP compilation detected.
      Number of MPI processes > 1.
      OMP_NUM_THREADS environment variable present and
      its value matches the one obtained from the OpenMP library call.
      Using this value as default.
      Default threads: 4
      Default applies to threads_max and threads_num_fftboxes.
      Settings in the input file override this default.
   ... done

   Running with 40 MPI processes.
   There are 10 MPI processes running on the same node as the root process.
   Each MPI process is using: 
               1 threads for simulation cell FFTs.
               1 threads for parallel FFT box operations.
               4 threads for loops over batched FFT box operations.
               4 threads in other parallel regions.
... done

Basic input checks...
Resetting ngwf_cg_rotate to TRUE for EDFT calculations
... done

Reading geometry and species blocks from file "3.5418184_GO_manual_4x64graphite.dat" ...
    
  PSINC grid spacing along a1 set to   0.511215680000a0 from input file.
  PSINC grid spacing along a2 set to   0.531284090000a0 from input file.
  PSINC grid spacing along a3 set to   0.507051550000a0 from input file.
  Number of PPD points along a3 set to 1.  This is 
  the default value, it may have been provided also in the input file.
... done
 Writing xyz coordinates to file "3.5418184_GO_manual_4x64graphite.xyz" ... done


--------------------------------------------------------------------------------
---------------------------------- INPUT FILE ----------------------------------
--------------------------------------------------------------------------------

task : singlepoint                                                              
do_properties : true                                                            
dx_format T                                                                     
edft T                                                                          
output_detail VERBOSE                                                           
write_xyz T                                                                     
xc_functional VDWDF                                                             
PSINC_SPACING 0.51121568 0.53128409 0.50705155                                  
paw T                                                                           
pdos_max_l = 2                                                                  
dos_smear  0.1 eV                                                               
popn_calculate T                                                                
PDOS_PSEUDOATOMIC T                                                             
PDOS_REDUCE_SWS F                                                               
PDOS_CONSTRUCT_BASIS F                                                          
PDOS_LOWDIN T                                                                   
PDOS_ORTH_ATOM_BLOCKS F                                                         
PDOS_LCAO_OPTIMIZE F                                                            
pdos_optados_output T                                                           
homo_plot 0                                                                     
lumo_plot 0                                                                     
homo_dens_plot -1                                                               
lumo_dens_plot -1                                                               
%BLOCK SPECIES                                                                  
C C 6 4 9.0                                                                     
%ENDBLOCK SPECIES                                                               
%BLOCK SPECIES_POT                                                              
C "~/pp/paw/c_pbe_abinit.paw"                                                   
%ENDBLOCK SPECIES_POT                                                           
%BLOCK SPECIES_ATOMIC_SET                                                       
C "SOLVE conf=2s2 2p2"                                                          
%ENDBLOCK SPECIES_ATOMIC_SET                                                    
%BLOCK LATTICE_CART                                                             
32.21  0.00  0.00                                                               
0.00 18.59  0.00                                                                
0.00  0.00 66.93                                                                
%ENDBLOCK LATTICE_CART                                                          
%BLOCK POSITIONS_ABS                                                            
C  0.00  0.00  3.35                                                             
C  0.00  0.00 16.73                                                             
C  0.00  0.00 30.12                                                             
C  0.00  0.00 43.51                                                             
C  0.00  0.00 56.89                                                             
C  0.00  4.65  3.35                                                             
C  0.00  4.65 16.73                                                             
C  0.00  4.65 30.12                                                             
C  0.00  4.65 43.51                                                             
C  0.00  4.65 56.89                                                             
C  4.03  2.32  3.35                                                             
C  4.03  2.32 16.73                                                             
C  4.03  2.32 30.12                                                             
C  4.03  2.32 43.51                                                             
C  4.03  2.32 56.89                                                             
C  8.05  0.00  3.35                                                             
C  8.05  0.00 16.73                                                             
C  8.05  0.00 30.12                                                             
C  8.05  0.00 43.51                                                             
C  8.05  0.00 56.89                                                             
C  0.00  9.30  3.35                                                             
C  0.00  9.30 16.73                                                             
C  0.00  9.30 30.12                                                             
C  0.00  9.30 43.51                                                             
C  0.00  9.30 56.89                                                             
C  4.03  6.97  3.35                                                             
C  4.03  6.97 16.73                                                             
C  4.03  6.97 30.12                                                             
C  4.03  6.97 43.51                                                             
C  4.03  6.97 56.89                                                             
C  8.05  4.65  3.35                                                             
C  8.05  4.65 16.73                                                             
C  8.05  4.65 30.12                                                             
C  8.05  4.65 43.51                                                             
C  8.05  4.65 56.89                                                             
C 12.08  2.32  3.35                                                             
C 12.08  2.32 16.73                                                             
C 12.08  2.32 30.12                                                             
C 12.08  2.32 43.51                                                             
C 12.08  2.32 56.89                                                             
C 16.10  0.00  3.35                                                             
C 16.10  0.00 16.73                                                             
C 16.10  0.00 30.12                                                             
C 16.10  0.00 43.51                                                             
C 16.10  0.00 56.89                                                             
C  0.00 13.95  3.35                                                             
C  0.00 13.95 16.73                                                             
C  0.00 13.95 30.12                                                             
C  0.00 13.95 43.51                                                             
C  0.00 13.95 56.89                                                             
C  4.03 11.62  3.35                                                             
C  4.03 11.62 16.73                                                             
C  4.03 11.62 30.12                                                             
C  4.03 11.62 43.51                                                             
C  4.03 11.62 56.89                                                             
C  8.05  9.30  3.35                                                             
C  8.05  9.30 16.73                                                             
C  8.05  9.30 30.12                                                             
C  8.05  9.30 43.51                                                             
C  8.05  9.30 56.89                                                             
C 12.08  6.97  3.35                                                             
C 12.08  6.97 16.73                                                             
C 12.08  6.97 30.12                                                             
C 12.08  6.97 43.51                                                             
C 12.08  6.97 56.89                                                             
C 16.10  4.65  3.35                                                             
C 16.10  4.65 16.73                                                             
C 16.10  4.65 30.12                                                             
C 16.10  4.65 43.51                                                             
C 16.10  4.65 56.89                                                             
C 20.13  2.32  3.35                                                             
C 20.13  2.32 16.73                                                             
C 20.13  2.32 30.12                                                             
C 20.13  2.32 43.51                                                             
C 20.13  2.32 56.89                                                             
C 24.16  0.00  3.35                                                             
C 24.16  0.00 16.73                                                             
C 24.16  0.00 30.12                                                             
C 24.16  0.00 43.51                                                             
C 24.16  0.00 56.89                                                             
C  4.03 16.27  3.35                                                             
C  4.03 16.27 16.73                                                             
C  4.03 16.27 30.12                                                             
C  4.03 16.27 43.51                                                             
C  4.03 16.27 56.89                                                             
C  8.05 13.95  3.35                                                             
C  8.05 13.95 16.73                                                             
C  8.05 13.95 30.12                                                             
C  8.05 13.95 43.51                                                             
C  8.05 13.95 56.89                                                             
C 12.08 11.62  3.35                                                             
C 12.08 11.62 16.73                                                             
C 12.08 11.62 30.12                                                             
C 12.08 11.62 43.51                                                             
C 12.08 11.62 56.89                                                             
C 16.10  9.30  3.35                                                             
C 16.10  9.30 16.73                                                             
C 16.10  9.30 30.12                                                             
C 16.10  9.30 43.51                                                             
C 16.10  9.30 56.89                                                             
C 20.13  6.97  3.35                                                             
C 20.13  6.97 16.73                                                             
C 20.13  6.97 30.12                                                             
C 20.13  6.97 43.51                                                             
C 20.13  6.97 56.89                                                             
C 24.16  4.65  3.35                                                             
C 24.16  4.65 16.73                                                             
C 24.16  4.65 30.12                                                             
C 24.16  4.65 43.51                                                             
C 24.16  4.65 56.89                                                             
C 28.18  2.32  3.35                                                             
C 28.18  2.32 16.73                                                             
C 28.18  2.32 30.12                                                             
C 28.18  2.32 43.51                                                             
C 28.18  2.32 56.89                                                             
C 12.08 16.27  3.35                                                             
C 12.08 16.27 16.73                                                             
C 12.08 16.27 30.12                                                             
C 12.08 16.27 43.51                                                             
C 12.08 16.27 56.89                                                             
C 16.10 13.95  3.35                                                             
C 16.10 13.95 16.73                                                             
C 16.10 13.95 30.12                                                             
C 16.10 13.95 43.51                                                             
C 16.10 13.95 56.89                                                             
C 20.13 11.62  3.35                                                             
C 20.13 11.62 16.73                                                             
C 20.13 11.62 30.12                                                             
C 20.13 11.62 43.51                                                             
C 20.13 11.62 56.89                                                             
C 24.16  9.30  3.35                                                             
C 24.16  9.30 16.73                                                             
C 24.16  9.30 30.12                                                             
C 24.16  9.30 43.51                                                             
C 24.16  9.30 56.89                                                             
C 28.18  6.97  3.35                                                             
C 28.18  6.97 16.73                                                             
C 28.18  6.97 30.12                                                             
C 28.18  6.97 43.51                                                             
C 28.18  6.97 56.89                                                             
C 20.13 16.27  3.35                                                             
C 20.13 16.27 16.73                                                             
C 20.13 16.27 30.12                                                             
C 20.13 16.27 43.51                                                             
C 20.13 16.27 56.89                                                             
C 24.16 13.95  3.35                                                             
C 24.16 13.95 16.73                                                             
C 24.16 13.95 30.12                                                             
C 24.16 13.95 43.51                                                             
C 24.16 13.95 56.89                                                             
C 28.18 11.62  3.35                                                             
C 28.18 11.62 16.73                                                             
C 28.18 11.62 30.12                                                             
C 28.18 11.62 43.51                                                             
C 28.18 11.62 56.89                                                             
C 28.18 16.27  3.35                                                             
C 28.18 16.27 16.73                                                             
C 28.18 16.27 30.12                                                             
C 28.18 16.27 43.51                                                             
C 28.18 16.27 56.89                                                             
C  0.00  0.00 10.04                                                             
C  0.00  0.00 23.43                                                             
C  0.00  0.00 36.81                                                             
C  0.00  0.00 50.20                                                             
C  0.00  0.00 63.58                                                             
C  0.00  4.65 10.04                                                             
C  0.00  4.65 23.43                                                             
C  0.00  4.65 36.81                                                             
C  0.00  4.65 50.20                                                             
C  0.00  4.65 63.58                                                             
C  4.03  2.32 10.04                                                             
C  4.03  2.32 23.43                                                             
C  4.03  2.32 36.81                                                             
C  4.03  2.32 50.20                                                             
C  4.03  2.32 63.58                                                             
C  8.05  0.00 10.04                                                             
C  8.05  0.00 23.43                                                             
C  8.05  0.00 36.81                                                             
C  8.05  0.00 50.20                                                             
C  8.05  0.00 63.58                                                             
C  0.00  9.30 10.04                                                             
C  0.00  9.30 23.43                                                             
C  0.00  9.30 36.81                                                             
C  0.00  9.30 50.20                                                             
C  0.00  9.30 63.58                                                             
C  4.03  6.97 10.04                                                             
C  4.03  6.97 23.43                                                             
C  4.03  6.97 36.81                                                             
C  4.03  6.97 50.20                                                             
C  4.03  6.97 63.58                                                             
C  8.05  4.65 10.04                                                             
C  8.05  4.65 23.43                                                             
C  8.05  4.65 36.81                                                             
C  8.05  4.65 50.20                                                             
C  8.05  4.65 63.58                                                             
C 12.08  2.32 10.04                                                             
C 12.08  2.32 23.43                                                             
C 12.08  2.32 36.81                                                             
C 12.08  2.32 50.20                                                             
C 12.08  2.32 63.58                                                             
C 16.10  0.00 10.04                                                             
C 16.10  0.00 23.43                                                             
C 16.10  0.00 36.81                                                             
C 16.10  0.00 50.20                                                             
C 16.10  0.00 63.58                                                             
C  0.00 13.95 10.04                                                             
C  0.00 13.95 23.43                                                             
C  0.00 13.95 36.81                                                             
C  0.00 13.95 50.20                                                             
C  0.00 13.95 63.58                                                             
C  4.03 11.62 10.04                                                             
C  4.03 11.62 23.43                                                             
C  4.03 11.62 36.81                                                             
C  4.03 11.62 50.20                                                             
C  4.03 11.62 63.58                                                             
C  8.05  9.30 10.04                                                             
C  8.05  9.30 23.43                                                             
C  8.05  9.30 36.81                                                             
C  8.05  9.30 50.20                                                             
C  8.05  9.30 63.58                                                             
C 12.08  6.97 10.04                                                             
C 12.08  6.97 23.43                                                             
C 12.08  6.97 36.81                                                             
C 12.08  6.97 50.20                                                             
C 12.08  6.97 63.58                                                             
C 16.10  4.65 10.04                                                             
C 16.10  4.65 23.43                                                             
C 16.10  4.65 36.81                                                             
C 16.10  4.65 50.20                                                             
C 16.10  4.65 63.58                                                             
C 20.13  2.32 10.04                                                             
C 20.13  2.32 23.43                                                             
C 20.13  2.32 36.81                                                             
C 20.13  2.32 50.20                                                             
C 20.13  2.32 63.58                                                             
C 24.16  0.00 10.04                                                             
C 24.16  0.00 23.43                                                             
C 24.16  0.00 36.81                                                             
C 24.16  0.00 50.20                                                             
C 24.16  0.00 63.58                                                             
C  4.03 16.27 10.04                                                             
C  4.03 16.27 23.43                                                             
C  4.03 16.27 36.81                                                             
C  4.03 16.27 50.20                                                             
C  4.03 16.27 63.58                                                             
C  8.05 13.95 10.04                                                             
C  8.05 13.95 23.43                                                             
C  8.05 13.95 36.81                                                             
C  8.05 13.95 50.20                                                             
C  8.05 13.95 63.58                                                             
C 12.08 11.62 10.04                                                             
C 12.08 11.62 23.43                                                             
C 12.08 11.62 36.81                                                             
C 12.08 11.62 50.20                                                             
C 12.08 11.62 63.58                                                             
C 16.10  9.30 10.04                                                             
C 16.10  9.30 23.43                                                             
C 16.10  9.30 36.81                                                             
C 16.10  9.30 50.20                                                             
C 16.10  9.30 63.58                                                             
C 20.13  6.97 10.04                                                             
C 20.13  6.97 23.43                                                             
C 20.13  6.97 36.81                                                             
C 20.13  6.97 50.20                                                             
C 20.13  6.97 63.58                                                             
C 24.16  4.65 10.04                                                             
C 24.16  4.65 23.43                                                             
C 24.16  4.65 36.81                                                             
C 24.16  4.65 50.20                                                             
C 24.16  4.65 63.58                                                             
C 28.18  2.32 10.04                                                             
C 28.18  2.32 23.43                                                             
C 28.18  2.32 36.81                                                             
C 28.18  2.32 50.20                                                             
C 28.18  2.32 63.58                                                             
C 12.08 16.27 10.04                                                             
C 12.08 16.27 23.43                                                             
C 12.08 16.27 36.81                                                             
C 12.08 16.27 50.20                                                             
C 12.08 16.27 63.58                                                             
C 16.10 13.95 10.04                                                             
C 16.10 13.95 23.43                                                             
C 16.10 13.95 36.81                                                             
C 16.10 13.95 50.20                                                             
C 16.10 13.95 63.58                                                             
C 20.13 11.62 10.04                                                             
C 20.13 11.62 23.43                                                             
C 20.13 11.62 36.81                                                             
C 20.13 11.62 50.20                                                             
C 20.13 11.62 63.58                                                             
C 24.16  9.30 10.04                                                             
C 24.16  9.30 23.43                                                             
C 24.16  9.30 36.81                                                             
C 24.16  9.30 50.20                                                             
C 24.16  9.30 63.58                                                             
C 28.18  6.97 10.04                                                             
C 28.18  6.97 23.43                                                             
C 28.18  6.97 36.81                                                             
C 28.18  6.97 50.20                                                             
C 28.18  6.97 63.58                                                             
C 20.13 16.27 10.04                                                             
C 20.13 16.27 23.43                                                             
C 20.13 16.27 36.81                                                             
C 20.13 16.27 50.20                                                             
C 20.13 16.27 63.58                                                             
C 24.16 13.95 10.04                                                             
C 24.16 13.95 23.43                                                             
C 24.16 13.95 36.81                                                             
C 24.16 13.95 50.20                                                             
C 24.16 13.95 63.58                                                             
C 28.18 11.62 10.04                                                             
C 28.18 11.62 23.43                                                             
C 28.18 11.62 36.81                                                             
C 28.18 11.62 50.20                                                             
C 28.18 11.62 63.58                                                             
C 28.18 16.27 10.04                                                             
C 28.18 16.27 23.43                                                             
C 28.18 16.27 36.81                                                             
C 28.18 16.27 50.20                                                             
C 28.18 16.27 63.58                                                             
C  1.34  2.32  3.35                                                             
C  1.34  2.32 16.73                                                             
C  1.34  2.32 30.12                                                             
C  1.34  2.32 43.51                                                             
C  1.34  2.32 56.89                                                             
C  5.37  0.00  3.35                                                             
C  5.37  0.00 16.73                                                             
C  5.37  0.00 30.12                                                             
C  5.37  0.00 43.51                                                             
C  5.37  0.00 56.89                                                             
C  1.34  6.97  3.35                                                             
C  1.34  6.97 16.73                                                             
C  1.34  6.97 30.12                                                             
C  1.34  6.97 43.51                                                             
C  1.34  6.97 56.89                                                             
C  5.37  4.65  3.35                                                             
C  5.37  4.65 16.73                                                             
C  5.37  4.65 30.12                                                             
C  5.37  4.65 43.51                                                             
C  5.37  4.65 56.89                                                             
C  9.39  2.32  3.35                                                             
C  9.39  2.32 16.73                                                             
C  9.39  2.32 30.12                                                             
C  9.39  2.32 43.51                                                             
C  9.39  2.32 56.89                                                             
C 13.42  0.00  3.35                                                             
C 13.42  0.00 16.73                                                             
C 13.42  0.00 30.12                                                             
C 13.42  0.00 43.51                                                             
C 13.42  0.00 56.89                                                             
C  1.34 11.62  3.35                                                             
C  1.34 11.62 16.73                                                             
C  1.34 11.62 30.12                                                             
C  1.34 11.62 43.51                                                             
C  1.34 11.62 56.89                                                             
C  5.37  9.30  3.35                                                             
C  5.37  9.30 16.73                                                             
C  5.37  9.30 30.12                                                             
C  5.37  9.30 43.51                                                             
C  5.37  9.30 56.89                                                             
C  9.39  6.97  3.35                                                             
C  9.39  6.97 16.73                                                             
C  9.39  6.97 30.12                                                             
C  9.39  6.97 43.51                                                             
C  9.39  6.97 56.89                                                             
C 13.42  4.65  3.35                                                             
C 13.42  4.65 16.73                                                             
C 13.42  4.65 30.12                                                             
C 13.42  4.65 43.51                                                             
C 13.42  4.65 56.89                                                             
C 17.45  2.32  3.35                                                             
C 17.45  2.32 16.73                                                             
C 17.45  2.32 30.12                                                             
C 17.45  2.32 43.51                                                             
C 17.45  2.32 56.89                                                             
C 21.47  0.00  3.35                                                             
C 21.47  0.00 16.73                                                             
C 21.47  0.00 30.12                                                             
C 21.47  0.00 43.51                                                             
C 21.47  0.00 56.89                                                             
C  1.34 16.27  3.35                                                             
C  1.34 16.27 16.73                                                             
C  1.34 16.27 30.12                                                             
C  1.34 16.27 43.51                                                             
C  1.34 16.27 56.89                                                             
C  5.37 13.95  3.35                                                             
C  5.37 13.95 16.73                                                             
C  5.37 13.95 30.12                                                             
C  5.37 13.95 43.51                                                             
C  5.37 13.95 56.89                                                             
C  9.39 11.62  3.35                                                             
C  9.39 11.62 16.73                                                             
C  9.39 11.62 30.12                                                             
C  9.39 11.62 43.51                                                             
C  9.39 11.62 56.89                                                             
C 13.42  9.30  3.35                                                             
C 13.42  9.30 16.73                                                             
C 13.42  9.30 30.12                                                             
C 13.42  9.30 43.51                                                             
C 13.42  9.30 56.89                                                             
C 17.45  6.97  3.35                                                             
C 17.45  6.97 16.73                                                             
C 17.45  6.97 30.12                                                             
C 17.45  6.97 43.51                                                             
C 17.45  6.97 56.89                                                             
C 21.47  4.65  3.35                                                             
C 21.47  4.65 16.73                                                             
C 21.47  4.65 30.12                                                             
C 21.47  4.65 43.51                                                             
C 21.47  4.65 56.89                                                             
C 25.50  2.32  3.35                                                             
C 25.50  2.32 16.73                                                             
C 25.50  2.32 30.12                                                             
C 25.50  2.32 43.51                                                             
C 25.50  2.32 56.89                                                             
C 29.52  0.00  3.35                                                             
C 29.52  0.00 16.73                                                             
C 29.52  0.00 30.12                                                             
C 29.52  0.00 43.51                                                             
C 29.52  0.00 56.89                                                             
C  9.39 16.27  3.35                                                             
C  9.39 16.27 16.73                                                             
C  9.39 16.27 30.12                                                             
C  9.39 16.27 43.51                                                             
C  9.39 16.27 56.89                                                             
C 13.42 13.95  3.35                                                             
C 13.42 13.95 16.73                                                             
C 13.42 13.95 30.12                                                             
C 13.42 13.95 43.51                                                             
C 13.42 13.95 56.89                                                             
C 17.45 11.62  3.35                                                             
C 17.45 11.62 16.73                                                             
C 17.45 11.62 30.12                                                             
C 17.45 11.62 43.51                                                             
C 17.45 11.62 56.89                                                             
C 21.47  9.30  3.35                                                             
C 21.47  9.30 16.73                                                             
C 21.47  9.30 30.12                                                             
C 21.47  9.30 43.51                                                             
C 21.47  9.30 56.89                                                             
C 25.50  6.97  3.35                                                             
C 25.50  6.97 16.73                                                             
C 25.50  6.97 30.12                                                             
C 25.50  6.97 43.51                                                             
C 25.50  6.97 56.89                                                             
C 29.52  4.65  3.35                                                             
C 29.52  4.65 16.73                                                             
C 29.52  4.65 30.12                                                             
C 29.52  4.65 43.51                                                             
C 29.52  4.65 56.89                                                             
C 17.45 16.27  3.35                                                             
C 17.45 16.27 16.73                                                             
C 17.45 16.27 30.12                                                             
C 17.45 16.27 43.51                                                             
C 17.45 16.27 56.89                                                             
C 21.47 13.95  3.35                                                             
C 21.47 13.95 16.73                                                             
C 21.47 13.95 30.12                                                             
C 21.47 13.95 43.51                                                             
C 21.47 13.95 56.89                                                             
C 25.50 11.62  3.35                                                             
C 25.50 11.62 16.73                                                             
C 25.50 11.62 30.12                                                             
C 25.50 11.62 43.51                                                             
C 25.50 11.62 56.89                                                             
C 29.52  9.30  3.35                                                             
C 29.52  9.30 16.73                                                             
C 29.52  9.30 30.12                                                             
C 29.52  9.30 43.51                                                             
C 29.52  9.30 56.89                                                             
C 25.50 16.27  3.35                                                             
C 25.50 16.27 16.73                                                             
C 25.50 16.27 30.12                                                             
C 25.50 16.27 43.51                                                             
C 25.50 16.27 56.89                                                             
C 29.52 13.95  3.35                                                             
C 29.52 13.95 16.73                                                             
C 29.52 13.95 30.12                                                             
C 29.52 13.95 43.51                                                             
C 29.52 13.95 56.89                                                             
C  2.68  0.00 10.04                                                             
C  2.68  0.00 23.43                                                             
C  2.68  0.00 36.81                                                             
C  2.68  0.00 50.20                                                             
C  2.68  0.00 63.58                                                             
C  2.68  4.65 10.04                                                             
C  2.68  4.65 23.43                                                             
C  2.68  4.65 36.81                                                             
C  2.68  4.65 50.20                                                             
C  2.68  4.65 63.58                                                             
C  6.71  2.32 10.04                                                             
C  6.71  2.32 23.43                                                             
C  6.71  2.32 36.81                                                             
C  6.71  2.32 50.20                                                             
C  6.71  2.32 63.58                                                             
C 10.74  0.00 10.04                                                             
C 10.74  0.00 23.43                                                             
C 10.74  0.00 36.81                                                             
C 10.74  0.00 50.20                                                             
C 10.74  0.00 63.58                                                             
C  2.68  9.30 10.04                                                             
C  2.68  9.30 23.43                                                             
C  2.68  9.30 36.81                                                             
C  2.68  9.30 50.20                                                             
C  2.68  9.30 63.58                                                             
C  6.71  6.97 10.04                                                             
C  6.71  6.97 23.43                                                             
C  6.71  6.97 36.81                                                             
C  6.71  6.97 50.20                                                             
C  6.71  6.97 63.58                                                             
C 10.74  4.65 10.04                                                             
C 10.74  4.65 23.43                                                             
C 10.74  4.65 36.81                                                             
C 10.74  4.65 50.20                                                             
C 10.74  4.65 63.58                                                             
C 14.76  2.32 10.04                                                             
C 14.76  2.32 23.43                                                             
C 14.76  2.32 36.81                                                             
C 14.76  2.32 50.20                                                             
C 14.76  2.32 63.58                                                             
C 18.79  0.00 10.04                                                             
C 18.79  0.00 23.43                                                             
C 18.79  0.00 36.81                                                             
C 18.79  0.00 50.20                                                             
C 18.79  0.00 63.58                                                             
C  2.68 13.95 10.04                                                             
C  2.68 13.95 23.43                                                             
C  2.68 13.95 36.81                                                             
C  2.68 13.95 50.20                                                             
C  2.68 13.95 63.58                                                             
C  6.71 11.62 10.04                                                             
C  6.71 11.62 23.43                                                             
C  6.71 11.62 36.81                                                             
C  6.71 11.62 50.20                                                             
C  6.71 11.62 63.58                                                             
C 10.74  9.30 10.04                                                             
C 10.74  9.30 23.43                                                             
C 10.74  9.30 36.81                                                             
C 10.74  9.30 50.20                                                             
C 10.74  9.30 63.58                                                             
C 14.76  6.97 10.04                                                             
C 14.76  6.97 23.43                                                             
C 14.76  6.97 36.81                                                             
C 14.76  6.97 50.20                                                             
C 14.76  6.97 63.58                                                             
C 18.79  4.65 10.04                                                             
C 18.79  4.65 23.43                                                             
C 18.79  4.65 36.81                                                             
C 18.79  4.65 50.20                                                             
C 18.79  4.65 63.58                                                             
C 22.81  2.32 10.04                                                             
C 22.81  2.32 23.43                                                             
C 22.81  2.32 36.81                                                             
C 22.81  2.32 50.20                                                             
C 22.81  2.32 63.58                                                             
C 26.84  0.00 10.04                                                             
C 26.84  0.00 23.43                                                             
C 26.84  0.00 36.81                                                             
C 26.84  0.00 50.20                                                             
C 26.84  0.00 63.58                                                             
C  6.71 16.27 10.04                                                             
C  6.71 16.27 23.43                                                             
C  6.71 16.27 36.81                                                             
C  6.71 16.27 50.20                                                             
C  6.71 16.27 63.58                                                             
C 10.74 13.95 10.04                                                             
C 10.74 13.95 23.43                                                             
C 10.74 13.95 36.81                                                             
C 10.74 13.95 50.20                                                             
C 10.74 13.95 63.58                                                             
C 14.76 11.62 10.04                                                             
C 14.76 11.62 23.43                                                             
C 14.76 11.62 36.81                                                             
C 14.76 11.62 50.20                                                             
C 14.76 11.62 63.58                                                             
C 18.79  9.30 10.04                                                             
C 18.79  9.30 23.43                                                             
C 18.79  9.30 36.81                                                             
C 18.79  9.30 50.20                                                             
C 18.79  9.30 63.58                                                             
C 22.81  6.97 10.04                                                             
C 22.81  6.97 23.43                                                             
C 22.81  6.97 36.81                                                             
C 22.81  6.97 50.20                                                             
C 22.81  6.97 63.58                                                             
C 26.84  4.65 10.04                                                             
C 26.84  4.65 23.43                                                             
C 26.84  4.65 36.81                                                             
C 26.84  4.65 50.20                                                             
C 26.84  4.65 63.58                                                             
C 30.86  2.32 10.04                                                             
C 30.86  2.32 23.43                                                             
C 30.86  2.32 36.81                                                             
C 30.86  2.32 50.20                                                             
C 30.86  2.32 63.58                                                             
C 14.76 16.27 10.04                                                             
C 14.76 16.27 23.43                                                             
C 14.76 16.27 36.81                                                             
C 14.76 16.27 50.20                                                             
C 14.76 16.27 63.58                                                             
C 18.79 13.95 10.04                                                             
C 18.79 13.95 23.43                                                             
C 18.79 13.95 36.81                                                             
C 18.79 13.95 50.20                                                             
C 18.79 13.95 63.58                                                             
C 22.81 11.62 10.04                                                             
C 22.81 11.62 23.43                                                             
C 22.81 11.62 36.81                                                             
C 22.81 11.62 50.20                                                             
C 22.81 11.62 63.58                                                             
C 26.84  9.30 10.04                                                             
C 26.84  9.30 23.43                                                             
C 26.84  9.30 36.81                                                             
C 26.84  9.30 50.20                                                             
C 26.84  9.30 63.58                                                             
C 30.86  6.97 10.04                                                             
C 30.86  6.97 23.43                                                             
C 30.86  6.97 36.81                                                             
C 30.86  6.97 50.20                                                             
C 30.86  6.97 63.58                                                             
C 22.81 16.27 10.04                                                             
C 22.81 16.27 23.43                                                             
C 22.81 16.27 36.81                                                             
C 22.81 16.27 50.20                                                             
C 22.81 16.27 63.58                                                             
C 26.84 13.95 10.04                                                             
C 26.84 13.95 23.43                                                             
C 26.84 13.95 36.81                                                             
C 26.84 13.95 50.20                                                             
C 26.84 13.95 63.58                                                             
C 30.86 11.62 10.04                                                             
C 30.86 11.62 23.43                                                             
C 30.86 11.62 36.81                                                             
C 30.86 11.62 50.20                                                             
C 30.86 11.62 63.58                                                             
C 30.86 16.27 10.04                                                             
C 30.86 16.27 23.43                                                             
C 30.86 16.27 36.81                                                             
C 30.86 16.27 50.20                                                             
C 30.86 16.27 63.58                                                             
%ENDBLOCK POSITIONS_ABS                                                         

--------------------------------------------------------------------------------
-------------------------------- END INPUT FILE --------------------------------
--------------------------------------------------------------------------------


 
<<<<<<<<<<<<<<<<<<<<<<<<<<<<<<<<< Full system >>>>>>>>>>>>>>>>>>>>>>>>>>>>>>>>>>
<<<<<<<<<<<<<<<<<<<<<<<<<<< PAW Dataset information >>>>>>>>>>>>>>>>>>>>>>>>>>>
File: ~/pp/paw/c_pbe_abinit.paw; rc = 1.25 bohr; shape type =  3; rshape = 1.25 bohr;
  Atomic number:  6;  ionic charge:  4.000000
    Partial Wave 1: l = 0
    Partial Wave 2: l = 0
    Partial Wave 3: l = 1
    Partial Wave 4: l = 1
  Core charge supplied for Nonlinear Core Corrections
<<<<<<<<<<<<<<<<<<<<<<<<<<<<<<<<<<<<<<< >>>>>>>>>>>>>>>>>>>>>>>>>>>>>>>>>>>>>>>

-------------------------- Atom counting information ---------------------------
Symbol    Natoms    Nngwfs    Nprojs
  C        640      2560      5120
.......   ......    ......    ......
Totals:    640      2560      5120
--------------------------------------------------------------------------------

=============================== PSINC grid sizes ===============================
                      Simulation cell:   63 x  35 x 132
                              FFT-box:   63 x  35 x 117
                                  PPD:    7 x   5 x   1
Grid space d1=  0.511269841270a0 (KE cutoff=  29.06054Eh = 790.77748eV)
Grid space d2=  0.531142857143a0 (KE cutoff=  26.92659Eh = 732.70972eV)
Grid space d3=  0.507045454545a0 (KE cutoff=  29.54678Eh = 804.00890eV)
================================================================================
  
WARNING in cell_grid_distribute:
Average of less than one 23-slab per node, so workload cannot be
equally balanced between nodes.

********************* Fourier parallelisation information **********************
       Coarse grid (whole simulation cell) dimensions:     63    35   132
          Real-space ('12') slabs/node (min max mean):      3     4     3
         Recip-space ('23') slabs/node (min max mean):      0     1     0
********************************************************************************

********************* Fourier parallelisation information **********************
       Double grid (whole simulation cell) dimensions:    126    70   264
          Real-space ('12') slabs/node (min max mean):      6     7     6
         Recip-space ('23') slabs/node (min max mean):      1     2     1
********************************************************************************

Atom SCF Calculation for C  : Z (AE atom) =   6 : Z (PS atom) =   4
Config String: 2s2 2p2
Orbitals (num,occ):  2     2.00 2.00
Orbitals   (num,l):  2        0    1
Real-space Grid (nr,dr,rmax): 1293    0.0069659443    9.0000000000
Spherical Bessel Basis (nsws,lmax,cutoff):   37    2  161.4736382572
Confining potential (l,width,scale):  0    3.0000000000  100.0000000000
Confining potential (l,width,scale):  1    3.0000000000  100.0000000000
  1         -5.4966243538   -1.3415066196    4.5135257941   -1.6613421942
  2         -5.4660395227   -1.4172174419    4.4326892861   -1.6365362708
  3         -5.4759582348   -1.4337557188    4.4144498970   -1.6324663609
  4         -5.4843804720   -1.4365219414    4.4114201180   -1.6322033818
  5         -5.4882713954   -1.4381734139    4.4096331461   -1.6320227940
  6         -5.4902132675   -1.4390636620    4.4086785626   -1.6319270645
  7         -5.4912093711   -1.4395303631    4.4081823351   -1.6318789226
  8         -5.4917264140   -1.4397726342    4.4079268833   -1.6318551036
  9         -5.4919964206   -1.4398979410    4.4077958777   -1.6318434025
 10         -5.4921379132   -1.4399626875    4.4077287721   -1.6318376788
 11         -5.4922122245   -1.4399961532    4.4076943935   -1.6318348878
 12         -5.4922513136   -1.4400134684    4.4076767658   -1.6318335308
 13         -5.4922719001   -1.4400224400    4.4076677156   -1.6318328728
 14         -5.4922827535   -1.4400270959    4.4076630621   -1.6318325547
 15         -5.4922884809   -1.4400295164    4.4076606653   -1.6318324014
 16         -5.4922915059   -1.4400307770    4.4076594286   -1.6318323279
 17         -5.4922931051   -1.4400314347    4.4076587894   -1.6318322927
 18         -5.4922939512   -1.4400317785    4.4076584583   -1.6318322760
 19         -5.4922943993   -1.4400319585    4.4076582865   -1.6318322681
 20         -5.4922946368   -1.4400320529    4.4076581972   -1.6318322644
 21         -5.4922947627   -1.4400321025    4.4076581507   -1.6318322627
 22         -5.4922948296   -1.4400321287    4.4076581265   -1.6318322619
Atom SCF converged after  22 iterations to a total energy of     -5.49229483

Determining parallel strategy ...
... using space-filling curve
... NGWF load balancing: max     64;  min     64;  average     64
... Projector load balancing: max    128;  min    128;  average    128
... done
Calculating Ewald energy ...
              Ewald: real-space energy =    9485.205062
        Ewald: reciprocal-space energy =       0.175253
         Ewald: (sum_charge)**2 Energy =   11111.165858
         Ewald: (sum_charge**2) Energy =     878.414789
                          Ewald Energy =   -2504.200333
Basis initialisation ...... NGWF spheres initialised
... Projector spheres initialised
... NGWF tight boxes initialised
... Projector tight boxes initialised
... Tight-boxes gathered
... NGWF basis size (local,global):     693556  27898848
... PAW projector initialisation
... done

============================= Charge Augmentation ==============================
                           Aug box size:   11 x  11 x  11
================================================================================

========================== Sparse matrix information ===========================
                        Overlap matrix filling:  42.19%
                        Density kernel filling: 100.00%
              NGWF-Proj overlap matrix filling:  12.19%
                    Aug Overlap matrix filling:  47.03%
                    Hamiltonian matrix filling:  47.03%
                  NGWF diagonal matrix filling:   0.16%
                             KS matrix filling: 100.00% 
                           KSKS matrix filling: 100.00% 
================================================================================

Sparse matrix initialisation ... done
NGWF initialisation ...... done
============ Calculation of NGWF S^-1 using Hotelling algorithm ================ 
         Iteration  |  Frobenius norm and Maximum abs value    (of I-S*S_n^-1)   
               1       0.49050945E+02     0.97582552E+00
               2       0.47818027E+02     0.95351308E+00
               3       0.45971626E+02     0.91353358E+00
               4       0.43581715E+02     0.84748607E+00
               5       0.40720756E+02     0.74967004E+00
               6       0.37387497E+02     0.67909269E+00
               7       0.33900134E+02     0.63092370E+00
               8       0.30562094E+02     0.59023605E+00
               9       0.26988771E+02     0.54562583E+00
              10       0.22465168E+02     0.47578775E+00
              11       0.16569575E+02     0.36520271E+00
              12       0.97822354E+01     0.22022064E+00
              13       0.39015487E+01     0.85525297E-01
              14       0.74585076E+00     0.14869442E-01
              15       0.33071762E-01     0.55831210E-03
              16       0.86747573E-04     0.10514805E-05
              17       0.91190629E-09     0.66265882E-11
              18       0.74149486E-13     0.48849813E-14
================================================================================
Calculating core density ...
================================= Core Density =================================
               Core den box size:   21 x  21 x  21
================================================================================
 ... done
Up spin density kernel initialisation ...... done

Writing density kernel to file "3.5418184_GO_manual_4x64graphite.dkn" ... done

>>> Optimising kernel for current NGWFs:

--------------------------- Ensemble-DFT optimisation --------------------------
Running ScaLAPACK on   40 processor(s).

--------------------------------------------------------------------------------
  Iter                              Commutator    Free_energy(A=E-TS)     DeltaA
#    0                          0.000038784899   -3655.15103765421236  -3.66E+03

Step                       =       0.381966011250
Energy                     =   -3655.151008561992
Entropy (-TS)              =      -0.000029092635
Free energy (A=E-TS)       =   -3655.151037654212
Est. 0K Energy 0.5*(E+A)   =   -3655.151023108102
Residual Non-orthogonality =       0.000000000000
Residual N_electrons       =       0.000000000415

Spin          Integrated_Ne            Fermi_level     Delta_Fermi_level
   1      2559.999999997775         0.186485124182              1.86E-01

                           Spin 1          
     Orb      H-eigenvalues     Occupancies
       1 |    -0.5383483168    1.0000000000 | 
                          ------
    1276 |     0.1520422610    0.9999810975 | 
    1277 |     0.1526512262    0.9999770897 | 
    1278 |     0.1526687696    0.9999769624 | 
    1279 |     0.1529798160    0.9999745849 | 
    1280 |     0.1536044549    0.9999690434 | 
                 - Gap at zero temperature -
    1281 |     0.2219565093    0.0000136606 | 
    1282 |     0.2219660393    0.0000136196 | 
    1283 |     0.2219922813    0.0000135072 | 
    1284 |     0.2221806275    0.0000127273 | 
    1285 |     0.2221831724    0.0000127171 | 
                          ------
    2560 |     1.0205992877    0.0000000000 | 

                       |  Abs_value |  Threshold | Converged
     Delta_Free_energy |   3.66E+03 |   1.00E-06 |        No
     Delta_Energy      |   3.66E+03 |   1.00E-04 |        No
     Delta_Entropy     |   2.91E-05 |   1.00E-04 |       Yes
     Commutator        |   3.88E-05 |   1.00E-05 |        No
     Delta_Fermi_level |   1.86E-01 |   1.00E-03 |        No

  Line search of the free energy minimum:
  Step_type        Step             Free_energy   Predicted_free_energy
.   Initial    0.000000    -3655.15103765421236
.    Trial1    0.381966    -3655.15261274715294
.    Trial2    0.618034    -3655.15289814547441
. Quadratic    0.628176    -3655.15289870582774    -3655.15289863054340

--------------------------------------------------------------------------------
  Iter                              Commutator    Free_energy(A=E-TS)     DeltaA
#    1                          0.000021514684   -3655.15289870582774  -1.86E-03

Step                       =       0.628175728385
Energy                     =   -3655.152870494003
Entropy (-TS)              =      -0.000028211715
Free energy (A=E-TS)       =   -3655.152898705828
Est. 0K Energy 0.5*(E+A)   =   -3655.152884599916
Residual Non-orthogonality =       0.000000000000
Residual N_electrons       =      -0.000000000110

Spin          Integrated_Ne            Fermi_level     Delta_Fermi_level
   1      2560.000000000586         0.187031410649              5.46E-04

                           Spin 1          
     Orb      H-eigenvalues     Occupancies
       1 |    -0.5397301805    1.0000000000 | 
                          ------
    1276 |     0.1525738762    0.9999811848 | 
    1277 |     0.1530235426    0.9999783143 | 
    1278 |     0.1530363620    0.9999782263 | 
    1279 |     0.1535226733    0.9999746124 | 
    1280 |     0.1539831917    0.9999706387 | 
                 - Gap at zero temperature -
    1281 |     0.2225447585    0.0000134808 | 
    1282 |     0.2225531644    0.0000134451 | 
    1283 |     0.2225882121    0.0000132971 | 
    1284 |     0.2227632916    0.0000125819 | 
    1285 |     0.2227682188    0.0000125624 | 
                          ------
    2560 |     1.0210042152    0.0000000000 | 

                       |  Abs_value |  Threshold | Converged
     Delta_Free_energy |   1.86E-03 |   1.00E-06 |        No
     Delta_Energy      |   1.86E-03 |   1.00E-04 |        No
     Delta_Entropy     |   8.81E-07 |   1.00E-04 |       Yes
     Commutator        |   2.15E-05 |   1.00E-05 |        No
     Delta_Fermi_level |   5.46E-04 |   1.00E-03 |       Yes

  Line search of the free energy minimum:
  Step_type        Step             Free_energy   Predicted_free_energy
.   Initial    0.000000    -3655.15289870582774
.    Trial1    0.628176    -3655.15231035844090
.    Trial2    0.239942    -3655.15331236181100
. Quadratic    0.245753    -3655.15331257446496    -3655.15331259327422

--------------------------------------------------------------------------------
  Iter                              Commutator    Free_energy(A=E-TS)     DeltaA
#    2                          0.000011194841   -3655.15331257446496  -4.14E-04

Step                       =       0.245753429991
Energy                     =   -3655.153284512574
Entropy (-TS)              =      -0.000028061942
Free energy (A=E-TS)       =   -3655.153312574465
Est. 0K Energy 0.5*(E+A)   =   -3655.153298543520
Residual Non-orthogonality =       0.000000000000
Residual N_electrons       =       0.000000000051

Spin          Integrated_Ne            Fermi_level     Delta_Fermi_level
   1      2559.999999999726         0.187109056270              7.76E-05

                           Spin 1          
     Orb      H-eigenvalues     Occupancies
       1 |    -0.5399332091    1.0000000000 | 
                          ------
    1276 |     0.1526028184    0.9999814720 | 
    1277 |     0.1531074835    0.9999782711 | 
    1278 |     0.1531224365    0.9999781683 | 
    1279 |     0.1535493239    0.9999750179 | 
    1280 |     0.1540669600    0.9999705818 | 
                 - Gap at zero temperature -
    1281 |     0.2226597034    0.0000133230 | 
    1282 |     0.2226676361    0.0000132896 | 
    1283 |     0.2227009262    0.0000131507 | 
    1284 |     0.2228834859    0.0000124140 | 
    1285 |     0.2228882539    0.0000123953 | 
                          ------
    2560 |     1.0210533732    0.0000000000 | 

                       |  Abs_value |  Threshold | Converged
     Delta_Free_energy |   4.14E-04 |   1.00E-06 |        No
     Delta_Energy      |   4.14E-04 |   1.00E-04 |        No
     Delta_Entropy     |   1.50E-07 |   1.00E-04 |       Yes
     Commutator        |   1.12E-05 |   1.00E-05 |        No
     Delta_Fermi_level |   7.76E-05 |   1.00E-03 |       Yes

  Line search of the free energy minimum:
  Step_type        Step             Free_energy   Predicted_free_energy
.   Initial    0.000000    -3655.15331257446496
.    Trial1    0.245753    -3655.15341345909746
.    Trial2    0.533850    -3655.15341198432861
. Quadratic    0.386514    -3655.15342886351664    -3655.15342888503301

--------------------------------------------------------------------------------
  Iter                              Commutator    Free_energy(A=E-TS)     DeltaA
#    3                          0.000007643377   -3655.15342886351664  -1.16E-04

Step                       =       0.386514192900
Energy                     =   -3655.153400975164
Entropy (-TS)              =      -0.000027887927
Free energy (A=E-TS)       =   -3655.153428863517
Est. 0K Energy 0.5*(E+A)   =   -3655.153414919340
Residual Non-orthogonality =       0.000000000000
Residual N_electrons       =      -0.000000000426

Spin          Integrated_Ne            Fermi_level     Delta_Fermi_level
   1      2560.000000002274         0.187201269146              9.22E-05

                           Spin 1          
     Orb      H-eigenvalues     Occupancies
       1 |    -0.5401648105    1.0000000000 | 
                          ------
    1276 |     0.1526604107    0.9999816734 | 
    1277 |     0.1531889533    0.9999783447 | 
    1278 |     0.1532063793    0.9999782252 | 
    1279 |     0.1536054448    0.9999753010 | 
    1280 |     0.1541494294    0.9999706722 | 
                 - Gap at zero temperature -
    1281 |     0.2227808227    0.0000132019 | 
    1282 |     0.2227892149    0.0000131670 | 
    1283 |     0.2228210839    0.0000130351 | 
    1284 |     0.2230078672    0.0000122886 | 
    1285 |     0.2230124633    0.0000122707 | 
                          ------
    2560 |     1.0211336532    0.0000000000 | 

                       |  Abs_value |  Threshold | Converged
     Delta_Free_energy |   1.16E-04 |   1.00E-06 |        No
     Delta_Energy      |   1.16E-04 |   1.00E-04 |        No
     Delta_Entropy     |   1.74E-07 |   1.00E-04 |       Yes
     Commutator        |   7.64E-06 |   1.00E-05 |       Yes
     Delta_Fermi_level |   9.22E-05 |   1.00E-03 |       Yes

  Line search of the free energy minimum:
  Step_type        Step             Free_energy   Predicted_free_energy
.   Initial    0.000000    -3655.15342886351664
.    Trial1    0.386514    -3655.15346458251179
.    Trial2    0.620845    -3655.15338019760520
. Quadratic    0.256651    -3655.15347689443433    -3655.15347687477151

--------------------------------------------------------------------------------
  Iter                              Commutator    Free_energy(A=E-TS)     DeltaA
#    4                          0.000004950399   -3655.15347689443433  -4.80E-05

Step                       =       0.256650758109
Energy                     =   -3655.153449075794
[...]
 C   160 -- C   385       -0.10      5.37000
 C   159 -- C   384       -0.10      5.37000
 C   158 -- C   383       -0.10      5.37000
 C   157 -- C   382       -0.10      5.37000
 C   156 -- C   381       -0.10      5.37000
 C   155 -- C   355       -0.10      5.37000
 C   154 -- C   354       -0.10      5.37000
 C   153 -- C   353       -0.10      5.37000
 C   152 -- C   352       -0.10      5.37000
 C   151 -- C   351       -0.10      5.37000
 C   140 -- C   335       -0.10      5.37000
 C   139 -- C   334       -0.10      5.37000
 C   138 -- C   333       -0.10      5.37000
 C   137 -- C   332       -0.10      5.37000
 C   136 -- C   331       -0.10      5.37000
 C   115 -- C   325       -0.10      5.37000
 C   114 -- C   324       -0.10      5.37000
 C   113 -- C   323       -0.10      5.37000
 C   112 -- C   322       -0.10      5.37000
 C   111 -- C   321       -0.10      5.37000
 C   219 -- C   569       -0.10      5.37202
 C   218 -- C   568       -0.10      5.37202
 C   217 -- C   567       -0.10      5.37202
 C   216 -- C   566       -0.10      5.37202
 C   285 -- C   580       -0.10      5.37202
 C   284 -- C   579       -0.10      5.37202
 C   283 -- C   578       -0.10      5.37202
 C   282 -- C   577       -0.10      5.37202
 C   281 -- C   576       -0.10      5.37202
 C   260 -- C   605       -0.10      5.37202
 C   259 -- C   604       -0.10      5.37202
 C   258 -- C   603       -0.10      5.37202
 C   257 -- C   602       -0.10      5.37202
 C   256 -- C   601       -0.10      5.37202
 C   250 -- C   540       -0.10      5.37202
 C   249 -- C   539       -0.10      5.37202
 C   248 -- C   538       -0.10      5.37202
 C   247 -- C   537       -0.10      5.37202
 C   246 -- C   536       -0.10      5.37202
 C   220 -- C   570       -0.10      5.37202
 C   220 -- C   515       -0.10      5.37202
 C   219 -- C   514       -0.10      5.37202
 C   218 -- C   513       -0.10      5.37202
 C   217 -- C   512       -0.10      5.37202
 C   216 -- C   511       -0.10      5.37202
 C    95 -- C   425       -0.10      5.37202
 C    94 -- C   424       -0.10      5.37202
 C    93 -- C   423       -0.10      5.37202
 C   195 -- C   540       -0.10      5.37202
 C   195 -- C   500       -0.10      5.37202
 C   194 -- C   539       -0.10      5.37202
 C    92 -- C   422       -0.10      5.37202
 C   194 -- C   499       -0.10      5.37202
 C   193 -- C   538       -0.10      5.37202
 C   193 -- C   498       -0.10      5.37202
 C   192 -- C   537       -0.10      5.37202
 C    91 -- C   421       -0.10      5.37202
 C   192 -- C   497       -0.10      5.37202
 C   191 -- C   536       -0.10      5.37202
 C   191 -- C   496       -0.10      5.37202
 C    85 -- C   355       -0.10      5.37202
 C   180 -- C   515       -0.10      5.37202
 C    84 -- C   354       -0.10      5.37202
 C   179 -- C   514       -0.10      5.37202
 C    83 -- C   353       -0.10      5.37202
 C   178 -- C   513       -0.10      5.37202
 C   177 -- C   512       -0.10      5.37202
 C    82 -- C   352       -0.10      5.37202
 C   176 -- C   511       -0.10      5.37202
 C    81 -- C   351       -0.10      5.37202
 C   120 -- C   395       -0.10      5.37202
 C    55 -- C   385       -0.10      5.37202
 C   119 -- C   394       -0.10      5.37202
 C   118 -- C   393       -0.10      5.37202
 C   117 -- C   392       -0.10      5.37202
 C    54 -- C   384       -0.10      5.37202
 C   116 -- C   391       -0.10      5.37202
 C    53 -- C   383       -0.10      5.37202
 C    52 -- C   382       -0.10      5.37202
 C    51 -- C   381       -0.10      5.37202
 C   205 -- C   550       -0.10      5.37202
 C   204 -- C   549       -0.10      5.37202
 C   203 -- C   548       -0.10      5.37202
 C   202 -- C   547       -0.10      5.37202
 C   201 -- C   546       -0.10      5.37202
 C    95 -- C   365       -0.10      5.37202
 C    94 -- C   364       -0.10      5.37202
 C    93 -- C   363       -0.10      5.37202
 C    92 -- C   362       -0.10      5.37202
 C    91 -- C   361       -0.10      5.37202
 C    65 -- C   395       -0.10      5.37202
 C    64 -- C   394       -0.10      5.37202
 C    63 -- C   393       -0.10      5.37202
 C    30 -- C   355       -0.10      5.37202
 C    62 -- C   392       -0.10      5.37202
 C    61 -- C   391       -0.10      5.37202
 C    29 -- C   354       -0.10      5.37202
 C   260 -- C   550       -0.10      5.37202
 C   259 -- C   549       -0.10      5.37202
 C    28 -- C   353       -0.10      5.37202
 C   258 -- C   548       -0.10      5.37202
 C   257 -- C   547       -0.10      5.37202
 C   256 -- C   546       -0.10      5.37202
 C    27 -- C   352       -0.10      5.37202
 C    26 -- C   351       -0.10      5.37202
 C    55 -- C   335       -0.10      5.37202
 C    54 -- C   334       -0.10      5.37202
 C    53 -- C   333       -0.10      5.37202
 C   230 -- C   580       -0.10      5.37202
 C   230 -- C   525       -0.10      5.37202
 C   229 -- C   579       -0.10      5.37202
 C   229 -- C   524       -0.10      5.37202
 C   228 -- C   578       -0.10      5.37202
 C    52 -- C   332       -0.10      5.37202
 C   228 -- C   523       -0.10      5.37202
 C   227 -- C   577       -0.10      5.37202
 C   227 -- C   522       -0.10      5.37202
 C   226 -- C   576       -0.10      5.37202
 C   226 -- C   521       -0.10      5.37202
 C    51 -- C   331       -0.10      5.37202
 C    23 -- C   478       -0.10      5.37202
 C    49 -- C   469       -0.10      5.37202
 C    11 -- C   331       -0.10      5.37202
 C    48 -- C   468       -0.10      5.37202
 C    47 -- C   467       -0.10      5.37202
 C    22 -- C   477       -0.10      5.37202
 C    46 -- C   466       -0.10      5.37202
 C    21 -- C   476       -0.10      5.37202
 C    40 -- C   365       -0.10      5.37202
 C    39 -- C   364       -0.10      5.37202
 C    38 -- C   363       -0.10      5.37202
 C    37 -- C   362       -0.10      5.37202
 C    36 -- C   361       -0.10      5.37202
 C    15 -- C   335       -0.10      5.37202
 C    65 -- C   345       -0.10      5.37202
 C    64 -- C   344       -0.10      5.37202
 C    63 -- C   343       -0.10      5.37202
 C    30 -- C   325       -0.10      5.37202
 C    14 -- C   334       -0.10      5.37202
 C    62 -- C   342       -0.10      5.37202
 C    61 -- C   341       -0.10      5.37202
 C    29 -- C   324       -0.10      5.37202
 C    28 -- C   323       -0.10      5.37202
 C    13 -- C   333       -0.10      5.37202
 C    27 -- C   322       -0.10      5.37202
 C    26 -- C   321       -0.10      5.37202
 C    25 -- C   480       -0.10      5.37202
 C    12 -- C   332       -0.10      5.37202
 C    24 -- C   479       -0.10      5.37202
 C    50 -- C   470       -0.10      5.37202
 C    24 -- C   449       -0.10      5.37202
 C     6 -- C   416       -0.10      5.37202
 C    23 -- C   448       -0.10      5.37202
 C    22 -- C   447       -0.10      5.37202
 C    10 -- C   470       -0.10      5.37202
 C     5 -- C   450       -0.10      5.37202
 C    21 -- C   446       -0.10      5.37202
 C    10 -- C   420       -0.10      5.37202
 C     9 -- C   469       -0.10      5.37202
 C     9 -- C   419       -0.10      5.37202
 C     8 -- C   468       -0.10      5.37202
 C     4 -- C   449       -0.10      5.37202
 C   150 -- C   440       -0.10      5.37202
 C   149 -- C   439       -0.10      5.37202
 C   148 -- C   438       -0.10      5.37202
 C   147 -- C   437       -0.10      5.37202
 C     8 -- C   418       -0.10      5.37202
 C   146 -- C   436       -0.10      5.37202
 C     2 -- C   447       -0.10      5.37202
 C   135 -- C   460       -0.10      5.37202
 C     7 -- C   467       -0.10      5.37202
 C   134 -- C   459       -0.10      5.37202
 C   133 -- C   458       -0.10      5.37202
 C   132 -- C   457       -0.10      5.37202
 C   131 -- C   456       -0.10      5.37202
 C     7 -- C   417       -0.10      5.37202
 C     1 -- C   446       -0.10      5.37202
 C     6 -- C   466       -0.10      5.37202
 C    25 -- C   450       -0.10      5.37202
 C     3 -- C   448       -0.10      5.37202
 C   106 -- C   436       -0.10      5.37202
 C   106 -- C   376       -0.10      5.37202
 C    80 -- C   410       -0.10      5.37202
 C    79 -- C   409       -0.10      5.37202
 C    78 -- C   408       -0.10      5.37202
 C    77 -- C   407       -0.10      5.37202
 C    76 -- C   406       -0.10      5.37202
 C   135 -- C   410       -0.10      5.37202
 C   134 -- C   409       -0.10      5.37202
 C   133 -- C   408       -0.10      5.37202
 C   132 -- C   407       -0.10      5.37202
 C   131 -- C   406       -0.10      5.37202
 C   110 -- C   440       -0.10      5.37202
 C   110 -- C   380       -0.10      5.37202
 C   109 -- C   439       -0.10      5.37202
 C   109 -- C   379       -0.10      5.37202
 C   108 -- C   438       -0.10      5.37202
 C   108 -- C   378       -0.10      5.37202
 C   107 -- C   437       -0.10      5.37202
 C   107 -- C   377       -0.10      5.37202
 C   215 -- C   635       -0.10      5.38000
 C   214 -- C   634       -0.10      5.38000
 C   213 -- C   633       -0.10      5.38000
 C   212 -- C   632       -0.10      5.38000
 C   211 -- C   631       -0.10      5.38000
 C   190 -- C   620       -0.10      5.38000
 C   189 -- C   619       -0.10      5.38000
 C   188 -- C   618       -0.10      5.38000
 C   187 -- C   617       -0.10      5.38000
 C   186 -- C   616       -0.10      5.38000
 C   175 -- C   595       -0.10      5.38000
 C   174 -- C   594       -0.10      5.38000
 C   173 -- C   593       -0.10      5.38000
 C   172 -- C   592       -0.10      5.38000
 C   171 -- C   591       -0.10      5.38000
 C   245 -- C   640       -0.10      5.38000
 C   244 -- C   639       -0.10      5.38000
 C   243 -- C   638       -0.10      5.38000
 C   242 -- C   637       -0.10      5.38000
 C   241 -- C   636       -0.10      5.38000
==================================================


=================== Orbital energy and occupancy information ===================

      Total number of orbitals:    2560
        Occupancy sum (kernel):    1280.000000001
   Occupancy sum (eigenvalues):    1280.000000001
                 HOMO-LUMO gap:       0.000001444 Eh
                 Mid-gap level:       0.272069377 Eh

                        Orbital | Energy (Eh) | Occupancy
                            1    -0.484782026   1.0000000
                        .......   ...........   .........
                         1272     0.201976175   0.9999892
                         1273     0.202421095   0.9999875
                         1274     0.202448174   0.9999874
                         1275     0.205502123   0.9999670
                         1276     0.205509650   0.9999669
                         1277     0.205967797   0.9999617
                         1278     0.205975354   0.9999616
                         1279     0.206547238   0.9999541
                         1280     0.207007287   0.9999469
                         1281     0.272068654   0.0000224
                        ....... -- gap at 0K -- .........
                         1282     0.272070099   0.0000224
                         1283     0.272323384   0.0000207
                         1284     0.272324939   0.0000207
                         1285     0.272463766   0.0000198
                         1286     0.272478314   0.0000197
                         1287     0.272730542   0.0000182
                         1288     0.272745342   0.0000181
                         1289     0.272807532   0.0000178
                         1290     0.273078320   0.0000163
                         1291     0.273117897   0.0000161
                        .......   ...........   .........
                         2560     1.131840829   0.0000000

================================================================================

===================== Writing canonical molecular orbitals =====================
| Orbital  Energy (eV)  Norm     |
| HOMO      7.40336480  1.000000 | Writing "3.5418184_GO_manual_4x64graphite_HOMO.cube" ... done
Writing "3.5418184_GO_manual_4x64graphite_HOMO.dx" ... done
| LUMO      7.40340410  1.000000 | Writing "3.5418184_GO_manual_4x64graphite_LUMO.cube" ... done
Writing "3.5418184_GO_manual_4x64graphite_LUMO.dx" ... done
================================================================================
 
===================== Density of States (DOS) calculation ======================
Writing "3.5418184_GO_manual_4x64graphite_DOS.txt" ...  done
================================================================================
 
Writing bands to file "3.5418184_GO_manual_4x64graphite.val_bands" ... done
 
================ Projected Density of States (pDOS) calculation ================
 
Constructing AM resolved functions  ...... done
Writing NGWF plot files in formats: CUBE DX ...  done
 
Performing overlap integrals ...  done
 
Computing pDOS weights ...  done
 
All bands spilling parameter =   3.47 %
Occupancy-weighted spilling parameter =   0.93 %
 
 => Outputting data for OptaDOS <=
 
Writing pDOS weights to file "3.5418184_GO_manual_4x64graphite.val_pdos_bin" ... done
 
Writing band gradients to file "3.5418184_GO_manual_4x64graphite.val_dome_bin" ... done
 
Writing Castep output cell file to "3.5418184_GO_manual_4x64graphite-out.cell" ... done
 
 => Computing Gaussian smeared pDOS <= 
Writing "3.5418184_GO_manual_4x64graphite_PDOS.txt" ...  done
 
 => Computing Occupancy-weighted Gaussian smeared pDOS <= 
Writing "3.5418184_GO_manual_4x64graphite_occ_PDOS.txt" ...  done
  => Band centres: 
 S band centre of group 1:  -15.635257 eV
 P band centre of group 1:   -8.485865 eV
  Band centres done. <=
  => Integrated number of electrons in each AM band: 
 S num electrons of group 1:  577.227161
 P num electrons of group 1: 1958.992463
  Integrated number of electrons done. <=
================================================================================

------------------------------ TIMING INFORMATION ------------------------------
AVERAGE TIME:    3567.477s on     40 node(s)                                    
TOTAL TIME:      3567.477s on     40 node(s)                                    
================= AVERAGE TIMINGS FROM ALL NODES (CUMULATIVE) ==================
|| TAG                                    #calls    cpu time   %total  Gflops ||
|| work_imbalance                       :     1        0.00s   0.000%  ------ ||
|| paw_tcore_hartree_on_grid            :     1        0.01s   0.000%  ------ ||
|| paw_tcore_density                    :     1        0.01s   0.000%  ------ ||
|| paw_sphere_density_on_grid           :     1        0.01s   0.000%  ------ ||
|| sparse_set_to_garbage                :   159        0.03s   0.001%  ------ ||
|| paw_dij_hartree                      :   321        0.04s   0.001%  ------ ||
|| pseudo_make_structure_factor         :     1        0.05s   0.002%  ------ ||
|| basis_extract_function_from_box      :  1792        0.08s   0.002%  ------ ||
|| paw_species_calc_proj_prec_mat       :     1        0.12s   0.003%  ------ ||
|| density_init_guess_real              :     1        0.17s   0.005%  ------ ||
|| paw_dataset_init                     :     1        0.20s   0.006%  ------ ||
|| ngwfs_initialise_from_radial         :     2        0.67s   0.019%  ------ ||
|| restart_kernel_write                 :    15        0.81s   0.023%  ------ ||
|| sparse_init                          :     1        0.92s   0.026%  ------ ||
|| dense_normal_eigensolve              :     1        1.02s   0.029%  ------ ||
|| hartree_on_grid                      :   241        1.26s   0.035%  ------ ||
|| projectors_init_fftbox_recip         :   141        2.71s   0.076%  ------ ||
|| ewald_calculate_energy               :     1        2.88s   0.081%  ------ ||
|| fourier_apply_box_pair               :  2656        4.39s   0.123% 560.811 ||
|| basis_copy_function_to_box           : 22912        4.94s   0.138%  ------ ||
|| augmentation_screen_dij              :   246        5.33s   0.149%  ------ ||
|| sw_init                              :     1        6.73s   0.189%  ------ ||
|| sparse_embed_hotelling_invert_embed  :    27        7.61s   0.213%  ------ ||
|| ngwf_gradient_coeffs                 :    14        9.83s   0.276%  ------ ||
|| sparse_trace                         :  2904       13.69s   0.384%  ------ ||
|| fourier_apply_cell_backward          :  7442       13.79s   0.387%  67.156 ||
|| fourier_apply_cell_forward           :  6961       15.56s   0.436%  55.677 ||
|| cell_grid_extract_box_real           :  9644       15.81s   0.443%  ------ ||
|| cell_grid_deposit_box_real           : 31024       20.16s   0.565%  ------ ||
|| paw_dij_xc                           :   321       21.10s   0.592%  ------ ||
|| aug_nonlocal_mat                     :   307       31.53s   0.884%  ------ ||
|| density_fftbox_deposit_to_cell       : 15424       40.73s   1.142%  ------ ||
|| augmentation_density_on_grid         :   241       44.47s   1.247%  ------ ||
|| hamiltonian_energy_components        :     3       46.90s   1.315%  ------ ||
|| eigenstates_pdos                     :     1       53.97s   1.513%  ------ ||
|| function_ops_brappd_ketppd           :    56       54.28s   1.522%  ------ ||
|| eigenstates_calculate                :     1       58.29s   1.634%  ------ ||
|| nlxc_vdw_energy                      :   480       62.14s   1.742%  ------ ||
|| projectors_func_ovlp_box             :    28       62.20s   1.743%  ------ ||
|| xc_energy_potential                  :   240       70.09s   1.965%  ------ ||
|| integrals_kinetic                    :    27       90.03s   2.524%  ------ ||
|| dense_eigensolve                     :   210      104.29s   2.923%  ------ ||
|| properties_calculate                 :     1      105.84s   2.967%  ------ ||
|| potential_apply_to_ngwf_batch        :   300      116.82s   3.275%  ------ ||
|| sparse_product                       :  2955      122.15s   3.424%  ------ ||
|| restart_ngwfs_tightbox_output        :    13      171.74s   4.814%  ------ ||
|| basis_dot_function_with_box          : 7.236M     197.70s   5.542%  ------ ||
|| fourier_apply_box                    : 72336      224.61s   6.296% 976.736 ||
|| edft_diag_ngwf_ham                   :   209      232.81s   6.526%  ------ ||
|| projectors_gradient_batch            :    56      253.47s   7.105%  ------ ||
|| integrals_locpot_mat_els_batch       :   300      257.11s   7.207%  ------ ||
|| density_fftbox_interpolate_multiply  : 15424      298.50s   8.367%  ------ ||
|| projectors_grad_precond_batch        :    56      347.28s   9.735%  ------ ||
|| integrals_locpot_dbl_grid            :    75      375.35s  10.522%  ------ ||
|| density_batch_interp_deposit         :   964      376.36s  10.550%  ------ ||
|| edft_apply_smearing_operator         :   209      451.86s  12.666%  ------ ||
|| basis_add_function_to_box            : 20.53M     541.55s  15.180%  ------ ||
|| ngwf_gradient_build_batch            :    56      643.06s  18.026%  ------ ||
|| density_batch_row_sums               :   964      737.15s  20.663%  ------ ||
|| ngwf_gradient_batch                  :    56      853.87s  23.935%  ------ ||
|| ngwf_gradient_lnv                    :    14      880.94s  24.694%  ------ ||
|| density_on_dbl_grid                  :   241     1126.29s  31.571%  ------ ||
|| hamiltonian_lhxc_calculate           :   236     1218.80s  34.164%  ------ ||
|| edft_calculate                       :    14     2030.10s  56.906%  ------ ||
|| ngwf_cg_optimise                     :     1     3436.57s  96.331%  ------ ||
|| total_time                           :     1     3567.48s 100.000%  ------ ||
================================================================================
Overhead of generating timer report: 
- 0 ms averaging over threads,
- 6 ms ensuring consistency across MPI ranks,
- 0 ms printing in order.

Job completed: 26-02-2020 02:26 (-0000)

