 +---------------------------------------------------------------+
 |                                                               |
 |        ####### #     # ####### ####### ####### ######         |
 |        #     # ##    # #          #    #       #     #        |
 |        #     # # #   # #          #    #       #     #        |
 |        #     # #  #  # #####      #    #####   ######         |
 |        #     # #   # # #          #    #       #              |
 |        #     # #    ## #          #    #       #              |
 |        ####### #     # #######    #    ####### #              |
 |                                                               |
 |        Linear-Scaling Ab Initio Total Energy Program          |
 |                                                               |
 |          Release for academic collaborators of ODG            |
 |                                             Version 5.3.2.12  |
 |                                                               |
 +---------------------------------------------------------------+
 |                                                               |
 |  Authors:                                                     |
 |  Jacek Dziedzic, Peter D. Haynes, Nicholas D. M. Hine,        |
 |  Arash. A. Mostofi, Mike C. Payne and Chris-Kriton Skylaris   |
 |                                                               |
 |  Contributors:                                                |
 |  J. Aarons, L. Andrinopoulos, P. W. Avraam, R. A. Bell,       |
 |  A. Bhandari, G. A. Bramley, R. J. Charlton, S. J. Clark,     |
 |  R. J. Clements, G. C. Constantinescu, F. Corsetti,           |
 |  N. Corsini, O. Dieguez, S. M. M. Dubois, K. K. B. Duff,      |
 |  J. M. Escartin, A. Greco, H. Helal, Q. O. Hill, L. P. Lee,   |
 |  J.-H. Li, E. B. Linscott, G. Moynihan, D. D. O`Regan,        |
 |  O. K. Okan, M. J. S. Phipps, C. J. Pickard,                  |
 |  J. C. A. Prentice, M. I. J. Probert, L. E. Ratcliff,         |
 |  M. Robinson, A. Ruiz Serrano, J. S. Spencer, E. W. Tait,     |
 |  G. Teobaldi, D. Turban, V. Vitale, K. A. Wilkinson,          |
 |  C. Weber, J. C. Womack, N. Yeung and T. J. Zuehlsdorff       |
 |                                                               |
 |                                   Copyright (c) 2004-2020     |
 |                                                               |
 |  Please cite:                                                 |
 |  "Introducing ONETEP: Linear-scaling density functional       |
 |   simulations on parallel computers".                         |
 |   C.-K. Skylaris, P. D. Haynes, A. A. Mostofi, M. C. Payne.   |
 |   J. Chem. Phys. 122 084119 (2005).                           |
 |                                                               |
 |          in all publications arising from your use of ONETEP. |
 |                                                               |
 +---------------------------------------------------------------+
 |                                                               |
 |   ONETEP is based on developments described in the following  |
 |   publications:                                               |
 |                                                               |
 |  "Nonorthogonal generalized Wannier function pseudopotential  |
 |   plane-wave method".                                         |
 |   C.-K. Skylaris, A. A. Mostofi, P. D. Haynes, O. Dieguez,    |
 |   M. C. Payne.                                                |
 |   Phys. Rev. B 66 035119 (2002).                              |
 |                                                               |
 |  "Preconditioned iterative minimization for linear-scaling    |
 |   electronic structure calculations".                         |
 |   A. A. Mostofi, P. D. Haynes, C.-K. Skylaris, M. C. Payne.   |
 |   J. Chem. Phys. 119(17), pp.8842-8848 (2003).                |
 |                                                               |
 |  "Total-energy calculations on a real space grid with         |
 |   localized functions and a plane-wave basis".                |
 |   A. A. Mostofi, C.-K. Skylaris, P. D. Haynes, M. C. Payne.   |
 |   Comput. Phys. Commun. 147, pp.788-802 (2002).               |
 |                                                               |
 |  "Accurate kinetic energy evaluation in electronic structure  |
 |   calculations with localized functions on real space grids"  |
 |   C.-K. Skylaris, A. A. Mostofi, P. D. Haynes, C. J. Pickard, |
 |   M. C. Payne.                                                |
 |   Comput. Phys. Commun. 140, pp.315-322 (2001).               |
 |                                                               |
 |  "Accurate ionic forces and geometry optimization in linear-  |
 |   scaling density-functional theory with local orbitals"      |
 |   N. D. M. Hine, M. Robinson, P. D. Haynes, C.-K. Skylaris,   |
 |   M. C. Payne, and A. A. Mostofi.                             |
 |   Phys. Rev. B 83 195102 (2011).                              |
 |                                                               |
 +---------------------------------------------------------------+

Job started: 26-02-2020 01:36 (-0000)
 
Reading parameters from file "3.5954808_GO_manual_4x64graphite.dat" ...

WARNING: "cutoff_energy" not specified, but "psinc_spacing" specified.
         Using the latter to set the KE cutoff energy to  732.32021eV,
         thus *overriding* the default.

... done

If your calculation crashes here, before "Checking processes and threads..."
is displayed, then your stack size is insufficient.
If so, use "ulimit -s unlimited" at runtime.
You can disable this check with "check_stack_size F".

Checking processes and threads...
   Determining the default number of threads...
      No default threads set at compilation time: defaulting to 1.
      OpenMP library call suggests 4 threads.
      Hybrid MPI-OpenMP compilation detected.
      Number of MPI processes > 1.
      OMP_NUM_THREADS environment variable present and
      its value matches the one obtained from the OpenMP library call.
      Using this value as default.
      Default threads: 4
      Default applies to threads_max and threads_num_fftboxes.
      Settings in the input file override this default.
   ... done

   Running with 40 MPI processes.
   There are 10 MPI processes running on the same node as the root process.
   Each MPI process is using: 
               1 threads for simulation cell FFTs.
               1 threads for parallel FFT box operations.
               4 threads for loops over batched FFT box operations.
               4 threads in other parallel regions.
... done

Basic input checks...
Resetting ngwf_cg_rotate to TRUE for EDFT calculations
... done

Reading geometry and species blocks from file "3.5954808_GO_manual_4x64graphite.dat" ...
    
  PSINC grid spacing along a1 set to   0.511215680000a0 from input file.
  PSINC grid spacing along a2 set to   0.531284090000a0 from input file.
  PSINC grid spacing along a3 set to   0.507051340000a0 from input file.
  Number of PPD points along a3 set to 1.  This is 
  the default value, it may have been provided also in the input file.
... done
 Writing xyz coordinates to file "3.5954808_GO_manual_4x64graphite.xyz" ... done


--------------------------------------------------------------------------------
---------------------------------- INPUT FILE ----------------------------------
--------------------------------------------------------------------------------

task : singlepoint                                                              
do_properties : true                                                            
dx_format T                                                                     
edft T                                                                          
output_detail VERBOSE                                                           
write_xyz T                                                                     
xc_functional VDWDF                                                             
PSINC_SPACING 0.51121568 0.53128409 0.50705134                                  
paw T                                                                           
pdos_max_l = 2                                                                  
dos_smear  0.1 eV                                                               
popn_calculate T                                                                
PDOS_PSEUDOATOMIC T                                                             
PDOS_REDUCE_SWS F                                                               
PDOS_CONSTRUCT_BASIS F                                                          
PDOS_LOWDIN T                                                                   
PDOS_ORTH_ATOM_BLOCKS F                                                         
PDOS_LCAO_OPTIMIZE F                                                            
pdos_optados_output T                                                           
homo_plot 0                                                                     
lumo_plot 0                                                                     
homo_dens_plot -1                                                               
lumo_dens_plot -1                                                               
%BLOCK SPECIES                                                                  
C C 6 4 9.0                                                                     
%ENDBLOCK SPECIES                                                               
%BLOCK SPECIES_POT                                                              
C "~/pp/paw/c_pbe_abinit.paw"                                                   
%ENDBLOCK SPECIES_POT                                                           
%BLOCK SPECIES_ATOMIC_SET                                                       
C "SOLVE conf=2s2 2p2"                                                          
%ENDBLOCK SPECIES_ATOMIC_SET                                                    
%BLOCK LATTICE_CART                                                             
32.21  0.00  0.00                                                               
0.00 18.59  0.00                                                                
0.00  0.00 67.94                                                                
%ENDBLOCK LATTICE_CART                                                          
%BLOCK POSITIONS_ABS                                                            
C  0.00  0.00  3.40                                                             
C  0.00  0.00 16.99                                                             
C  0.00  0.00 30.58                                                             
C  0.00  0.00 44.16                                                             
C  0.00  0.00 57.75                                                             
C  0.00  4.65  3.40                                                             
C  0.00  4.65 16.99                                                             
C  0.00  4.65 30.58                                                             
C  0.00  4.65 44.16                                                             
C  0.00  4.65 57.75                                                             
C  4.03  2.32  3.40                                                             
C  4.03  2.32 16.99                                                             
C  4.03  2.32 30.58                                                             
C  4.03  2.32 44.16                                                             
C  4.03  2.32 57.75                                                             
C  8.05  0.00  3.40                                                             
C  8.05  0.00 16.99                                                             
C  8.05  0.00 30.58                                                             
C  8.05  0.00 44.16                                                             
C  8.05  0.00 57.75                                                             
C  0.00  9.30  3.40                                                             
C  0.00  9.30 16.99                                                             
C  0.00  9.30 30.58                                                             
C  0.00  9.30 44.16                                                             
C  0.00  9.30 57.75                                                             
C  4.03  6.97  3.40                                                             
C  4.03  6.97 16.99                                                             
C  4.03  6.97 30.58                                                             
C  4.03  6.97 44.16                                                             
C  4.03  6.97 57.75                                                             
C  8.05  4.65  3.40                                                             
C  8.05  4.65 16.99                                                             
C  8.05  4.65 30.58                                                             
C  8.05  4.65 44.16                                                             
C  8.05  4.65 57.75                                                             
C 12.08  2.32  3.40                                                             
C 12.08  2.32 16.99                                                             
C 12.08  2.32 30.58                                                             
C 12.08  2.32 44.16                                                             
C 12.08  2.32 57.75                                                             
C 16.10  0.00  3.40                                                             
C 16.10  0.00 16.99                                                             
C 16.10  0.00 30.58                                                             
C 16.10  0.00 44.16                                                             
C 16.10  0.00 57.75                                                             
C  0.00 13.95  3.40                                                             
C  0.00 13.95 16.99                                                             
C  0.00 13.95 30.58                                                             
C  0.00 13.95 44.16                                                             
C  0.00 13.95 57.75                                                             
C  4.03 11.62  3.40                                                             
C  4.03 11.62 16.99                                                             
C  4.03 11.62 30.58                                                             
C  4.03 11.62 44.16                                                             
C  4.03 11.62 57.75                                                             
C  8.05  9.30  3.40                                                             
C  8.05  9.30 16.99                                                             
C  8.05  9.30 30.58                                                             
C  8.05  9.30 44.16                                                             
C  8.05  9.30 57.75                                                             
C 12.08  6.97  3.40                                                             
C 12.08  6.97 16.99                                                             
C 12.08  6.97 30.58                                                             
C 12.08  6.97 44.16                                                             
C 12.08  6.97 57.75                                                             
C 16.10  4.65  3.40                                                             
C 16.10  4.65 16.99                                                             
C 16.10  4.65 30.58                                                             
C 16.10  4.65 44.16                                                             
C 16.10  4.65 57.75                                                             
C 20.13  2.32  3.40                                                             
C 20.13  2.32 16.99                                                             
C 20.13  2.32 30.58                                                             
C 20.13  2.32 44.16                                                             
C 20.13  2.32 57.75                                                             
C 24.16  0.00  3.40                                                             
C 24.16  0.00 16.99                                                             
C 24.16  0.00 30.58                                                             
C 24.16  0.00 44.16                                                             
C 24.16  0.00 57.75                                                             
C  4.03 16.27  3.40                                                             
C  4.03 16.27 16.99                                                             
C  4.03 16.27 30.58                                                             
C  4.03 16.27 44.16                                                             
C  4.03 16.27 57.75                                                             
C  8.05 13.95  3.40                                                             
C  8.05 13.95 16.99                                                             
C  8.05 13.95 30.58                                                             
C  8.05 13.95 44.16                                                             
C  8.05 13.95 57.75                                                             
C 12.08 11.62  3.40                                                             
C 12.08 11.62 16.99                                                             
C 12.08 11.62 30.58                                                             
C 12.08 11.62 44.16                                                             
C 12.08 11.62 57.75                                                             
C 16.10  9.30  3.40                                                             
C 16.10  9.30 16.99                                                             
C 16.10  9.30 30.58                                                             
C 16.10  9.30 44.16                                                             
C 16.10  9.30 57.75                                                             
C 20.13  6.97  3.40                                                             
C 20.13  6.97 16.99                                                             
C 20.13  6.97 30.58                                                             
C 20.13  6.97 44.16                                                             
C 20.13  6.97 57.75                                                             
C 24.16  4.65  3.40                                                             
C 24.16  4.65 16.99                                                             
C 24.16  4.65 30.58                                                             
C 24.16  4.65 44.16                                                             
C 24.16  4.65 57.75                                                             
C 28.18  2.32  3.40                                                             
C 28.18  2.32 16.99                                                             
C 28.18  2.32 30.58                                                             
C 28.18  2.32 44.16                                                             
C 28.18  2.32 57.75                                                             
C 12.08 16.27  3.40                                                             
C 12.08 16.27 16.99                                                             
C 12.08 16.27 30.58                                                             
C 12.08 16.27 44.16                                                             
C 12.08 16.27 57.75                                                             
C 16.10 13.95  3.40                                                             
C 16.10 13.95 16.99                                                             
C 16.10 13.95 30.58                                                             
C 16.10 13.95 44.16                                                             
C 16.10 13.95 57.75                                                             
C 20.13 11.62  3.40                                                             
C 20.13 11.62 16.99                                                             
C 20.13 11.62 30.58                                                             
C 20.13 11.62 44.16                                                             
C 20.13 11.62 57.75                                                             
C 24.16  9.30  3.40                                                             
C 24.16  9.30 16.99                                                             
C 24.16  9.30 30.58                                                             
C 24.16  9.30 44.16                                                             
C 24.16  9.30 57.75                                                             
C 28.18  6.97  3.40                                                             
C 28.18  6.97 16.99                                                             
C 28.18  6.97 30.58                                                             
C 28.18  6.97 44.16                                                             
C 28.18  6.97 57.75                                                             
C 20.13 16.27  3.40                                                             
C 20.13 16.27 16.99                                                             
C 20.13 16.27 30.58                                                             
C 20.13 16.27 44.16                                                             
C 20.13 16.27 57.75                                                             
C 24.16 13.95  3.40                                                             
C 24.16 13.95 16.99                                                             
C 24.16 13.95 30.58                                                             
C 24.16 13.95 44.16                                                             
C 24.16 13.95 57.75                                                             
C 28.18 11.62  3.40                                                             
C 28.18 11.62 16.99                                                             
C 28.18 11.62 30.58                                                             
C 28.18 11.62 44.16                                                             
C 28.18 11.62 57.75                                                             
C 28.18 16.27  3.40                                                             
C 28.18 16.27 16.99                                                             
C 28.18 16.27 30.58                                                             
C 28.18 16.27 44.16                                                             
C 28.18 16.27 57.75                                                             
C  0.00  0.00 10.19                                                             
C  0.00  0.00 23.78                                                             
C  0.00  0.00 37.37                                                             
C  0.00  0.00 50.96                                                             
C  0.00  0.00 64.55                                                             
C  0.00  4.65 10.19                                                             
C  0.00  4.65 23.78                                                             
C  0.00  4.65 37.37                                                             
C  0.00  4.65 50.96                                                             
C  0.00  4.65 64.55                                                             
C  4.03  2.32 10.19                                                             
C  4.03  2.32 23.78                                                             
C  4.03  2.32 37.37                                                             
C  4.03  2.32 50.96                                                             
C  4.03  2.32 64.55                                                             
C  8.05  0.00 10.19                                                             
C  8.05  0.00 23.78                                                             
C  8.05  0.00 37.37                                                             
C  8.05  0.00 50.96                                                             
C  8.05  0.00 64.55                                                             
C  0.00  9.30 10.19                                                             
C  0.00  9.30 23.78                                                             
C  0.00  9.30 37.37                                                             
C  0.00  9.30 50.96                                                             
C  0.00  9.30 64.55                                                             
C  4.03  6.97 10.19                                                             
C  4.03  6.97 23.78                                                             
C  4.03  6.97 37.37                                                             
C  4.03  6.97 50.96                                                             
C  4.03  6.97 64.55                                                             
C  8.05  4.65 10.19                                                             
C  8.05  4.65 23.78                                                             
C  8.05  4.65 37.37                                                             
C  8.05  4.65 50.96                                                             
C  8.05  4.65 64.55                                                             
C 12.08  2.32 10.19                                                             
C 12.08  2.32 23.78                                                             
C 12.08  2.32 37.37                                                             
C 12.08  2.32 50.96                                                             
C 12.08  2.32 64.55                                                             
C 16.10  0.00 10.19                                                             
C 16.10  0.00 23.78                                                             
C 16.10  0.00 37.37                                                             
C 16.10  0.00 50.96                                                             
C 16.10  0.00 64.55                                                             
C  0.00 13.95 10.19                                                             
C  0.00 13.95 23.78                                                             
C  0.00 13.95 37.37                                                             
C  0.00 13.95 50.96                                                             
C  0.00 13.95 64.55                                                             
C  4.03 11.62 10.19                                                             
C  4.03 11.62 23.78                                                             
C  4.03 11.62 37.37                                                             
C  4.03 11.62 50.96                                                             
C  4.03 11.62 64.55                                                             
C  8.05  9.30 10.19                                                             
C  8.05  9.30 23.78                                                             
C  8.05  9.30 37.37                                                             
C  8.05  9.30 50.96                                                             
C  8.05  9.30 64.55                                                             
C 12.08  6.97 10.19                                                             
C 12.08  6.97 23.78                                                             
C 12.08  6.97 37.37                                                             
C 12.08  6.97 50.96                                                             
C 12.08  6.97 64.55                                                             
C 16.10  4.65 10.19                                                             
C 16.10  4.65 23.78                                                             
C 16.10  4.65 37.37                                                             
C 16.10  4.65 50.96                                                             
C 16.10  4.65 64.55                                                             
C 20.13  2.32 10.19                                                             
C 20.13  2.32 23.78                                                             
C 20.13  2.32 37.37                                                             
C 20.13  2.32 50.96                                                             
C 20.13  2.32 64.55                                                             
C 24.16  0.00 10.19                                                             
C 24.16  0.00 23.78                                                             
C 24.16  0.00 37.37                                                             
C 24.16  0.00 50.96                                                             
C 24.16  0.00 64.55                                                             
C  4.03 16.27 10.19                                                             
C  4.03 16.27 23.78                                                             
C  4.03 16.27 37.37                                                             
C  4.03 16.27 50.96                                                             
C  4.03 16.27 64.55                                                             
C  8.05 13.95 10.19                                                             
C  8.05 13.95 23.78                                                             
C  8.05 13.95 37.37                                                             
C  8.05 13.95 50.96                                                             
C  8.05 13.95 64.55                                                             
C 12.08 11.62 10.19                                                             
C 12.08 11.62 23.78                                                             
C 12.08 11.62 37.37                                                             
C 12.08 11.62 50.96                                                             
C 12.08 11.62 64.55                                                             
C 16.10  9.30 10.19                                                             
C 16.10  9.30 23.78                                                             
C 16.10  9.30 37.37                                                             
C 16.10  9.30 50.96                                                             
C 16.10  9.30 64.55                                                             
C 20.13  6.97 10.19                                                             
C 20.13  6.97 23.78                                                             
C 20.13  6.97 37.37                                                             
C 20.13  6.97 50.96                                                             
C 20.13  6.97 64.55                                                             
C 24.16  4.65 10.19                                                             
C 24.16  4.65 23.78                                                             
C 24.16  4.65 37.37                                                             
C 24.16  4.65 50.96                                                             
C 24.16  4.65 64.55                                                             
C 28.18  2.32 10.19                                                             
C 28.18  2.32 23.78                                                             
C 28.18  2.32 37.37                                                             
C 28.18  2.32 50.96                                                             
C 28.18  2.32 64.55                                                             
C 12.08 16.27 10.19                                                             
C 12.08 16.27 23.78                                                             
C 12.08 16.27 37.37                                                             
C 12.08 16.27 50.96                                                             
C 12.08 16.27 64.55                                                             
C 16.10 13.95 10.19                                                             
C 16.10 13.95 23.78                                                             
C 16.10 13.95 37.37                                                             
C 16.10 13.95 50.96                                                             
C 16.10 13.95 64.55                                                             
C 20.13 11.62 10.19                                                             
C 20.13 11.62 23.78                                                             
C 20.13 11.62 37.37                                                             
C 20.13 11.62 50.96                                                             
C 20.13 11.62 64.55                                                             
C 24.16  9.30 10.19                                                             
C 24.16  9.30 23.78                                                             
C 24.16  9.30 37.37                                                             
C 24.16  9.30 50.96                                                             
C 24.16  9.30 64.55                                                             
C 28.18  6.97 10.19                                                             
C 28.18  6.97 23.78                                                             
C 28.18  6.97 37.37                                                             
C 28.18  6.97 50.96                                                             
C 28.18  6.97 64.55                                                             
C 20.13 16.27 10.19                                                             
C 20.13 16.27 23.78                                                             
C 20.13 16.27 37.37                                                             
C 20.13 16.27 50.96                                                             
C 20.13 16.27 64.55                                                             
C 24.16 13.95 10.19                                                             
C 24.16 13.95 23.78                                                             
C 24.16 13.95 37.37                                                             
C 24.16 13.95 50.96                                                             
C 24.16 13.95 64.55                                                             
C 28.18 11.62 10.19                                                             
C 28.18 11.62 23.78                                                             
C 28.18 11.62 37.37                                                             
C 28.18 11.62 50.96                                                             
C 28.18 11.62 64.55                                                             
C 28.18 16.27 10.19                                                             
C 28.18 16.27 23.78                                                             
C 28.18 16.27 37.37                                                             
C 28.18 16.27 50.96                                                             
C 28.18 16.27 64.55                                                             
C  1.34  2.32  3.40                                                             
C  1.34  2.32 16.99                                                             
C  1.34  2.32 30.58                                                             
C  1.34  2.32 44.16                                                             
C  1.34  2.32 57.75                                                             
C  5.37  0.00  3.40                                                             
C  5.37  0.00 16.99                                                             
C  5.37  0.00 30.58                                                             
C  5.37  0.00 44.16                                                             
C  5.37  0.00 57.75                                                             
C  1.34  6.97  3.40                                                             
C  1.34  6.97 16.99                                                             
C  1.34  6.97 30.58                                                             
C  1.34  6.97 44.16                                                             
C  1.34  6.97 57.75                                                             
C  5.37  4.65  3.40                                                             
C  5.37  4.65 16.99                                                             
C  5.37  4.65 30.58                                                             
C  5.37  4.65 44.16                                                             
C  5.37  4.65 57.75                                                             
C  9.39  2.32  3.40                                                             
C  9.39  2.32 16.99                                                             
C  9.39  2.32 30.58                                                             
C  9.39  2.32 44.16                                                             
C  9.39  2.32 57.75                                                             
C 13.42  0.00  3.40                                                             
C 13.42  0.00 16.99                                                             
C 13.42  0.00 30.58                                                             
C 13.42  0.00 44.16                                                             
C 13.42  0.00 57.75                                                             
C  1.34 11.62  3.40                                                             
C  1.34 11.62 16.99                                                             
C  1.34 11.62 30.58                                                             
C  1.34 11.62 44.16                                                             
C  1.34 11.62 57.75                                                             
C  5.37  9.30  3.40                                                             
C  5.37  9.30 16.99                                                             
C  5.37  9.30 30.58                                                             
C  5.37  9.30 44.16                                                             
C  5.37  9.30 57.75                                                             
C  9.39  6.97  3.40                                                             
C  9.39  6.97 16.99                                                             
C  9.39  6.97 30.58                                                             
C  9.39  6.97 44.16                                                             
C  9.39  6.97 57.75                                                             
C 13.42  4.65  3.40                                                             
C 13.42  4.65 16.99                                                             
C 13.42  4.65 30.58                                                             
C 13.42  4.65 44.16                                                             
C 13.42  4.65 57.75                                                             
C 17.45  2.32  3.40                                                             
C 17.45  2.32 16.99                                                             
C 17.45  2.32 30.58                                                             
C 17.45  2.32 44.16                                                             
C 17.45  2.32 57.75                                                             
C 21.47  0.00  3.40                                                             
C 21.47  0.00 16.99                                                             
C 21.47  0.00 30.58                                                             
C 21.47  0.00 44.16                                                             
C 21.47  0.00 57.75                                                             
C  1.34 16.27  3.40                                                             
C  1.34 16.27 16.99                                                             
C  1.34 16.27 30.58                                                             
C  1.34 16.27 44.16                                                             
C  1.34 16.27 57.75                                                             
C  5.37 13.95  3.40                                                             
C  5.37 13.95 16.99                                                             
C  5.37 13.95 30.58                                                             
C  5.37 13.95 44.16                                                             
C  5.37 13.95 57.75                                                             
C  9.39 11.62  3.40                                                             
C  9.39 11.62 16.99                                                             
C  9.39 11.62 30.58                                                             
C  9.39 11.62 44.16                                                             
C  9.39 11.62 57.75                                                             
C 13.42  9.30  3.40                                                             
C 13.42  9.30 16.99                                                             
C 13.42  9.30 30.58                                                             
C 13.42  9.30 44.16                                                             
C 13.42  9.30 57.75                                                             
C 17.45  6.97  3.40                                                             
C 17.45  6.97 16.99                                                             
C 17.45  6.97 30.58                                                             
C 17.45  6.97 44.16                                                             
C 17.45  6.97 57.75                                                             
C 21.47  4.65  3.40                                                             
C 21.47  4.65 16.99                                                             
C 21.47  4.65 30.58                                                             
C 21.47  4.65 44.16                                                             
C 21.47  4.65 57.75                                                             
C 25.50  2.32  3.40                                                             
C 25.50  2.32 16.99                                                             
C 25.50  2.32 30.58                                                             
C 25.50  2.32 44.16                                                             
C 25.50  2.32 57.75                                                             
C 29.52  0.00  3.40                                                             
C 29.52  0.00 16.99                                                             
C 29.52  0.00 30.58                                                             
C 29.52  0.00 44.16                                                             
C 29.52  0.00 57.75                                                             
C  9.39 16.27  3.40                                                             
C  9.39 16.27 16.99                                                             
C  9.39 16.27 30.58                                                             
C  9.39 16.27 44.16                                                             
C  9.39 16.27 57.75                                                             
C 13.42 13.95  3.40                                                             
C 13.42 13.95 16.99                                                             
C 13.42 13.95 30.58                                                             
C 13.42 13.95 44.16                                                             
C 13.42 13.95 57.75                                                             
C 17.45 11.62  3.40                                                             
C 17.45 11.62 16.99                                                             
C 17.45 11.62 30.58                                                             
C 17.45 11.62 44.16                                                             
C 17.45 11.62 57.75                                                             
C 21.47  9.30  3.40                                                             
C 21.47  9.30 16.99                                                             
C 21.47  9.30 30.58                                                             
C 21.47  9.30 44.16                                                             
C 21.47  9.30 57.75                                                             
C 25.50  6.97  3.40                                                             
C 25.50  6.97 16.99                                                             
C 25.50  6.97 30.58                                                             
C 25.50  6.97 44.16                                                             
C 25.50  6.97 57.75                                                             
C 29.52  4.65  3.40                                                             
C 29.52  4.65 16.99                                                             
C 29.52  4.65 30.58                                                             
C 29.52  4.65 44.16                                                             
C 29.52  4.65 57.75                                                             
C 17.45 16.27  3.40                                                             
C 17.45 16.27 16.99                                                             
C 17.45 16.27 30.58                                                             
C 17.45 16.27 44.16                                                             
C 17.45 16.27 57.75                                                             
C 21.47 13.95  3.40                                                             
C 21.47 13.95 16.99                                                             
C 21.47 13.95 30.58                                                             
C 21.47 13.95 44.16                                                             
C 21.47 13.95 57.75                                                             
C 25.50 11.62  3.40                                                             
C 25.50 11.62 16.99                                                             
C 25.50 11.62 30.58                                                             
C 25.50 11.62 44.16                                                             
C 25.50 11.62 57.75                                                             
C 29.52  9.30  3.40                                                             
C 29.52  9.30 16.99                                                             
C 29.52  9.30 30.58                                                             
C 29.52  9.30 44.16                                                             
C 29.52  9.30 57.75                                                             
C 25.50 16.27  3.40                                                             
C 25.50 16.27 16.99                                                             
C 25.50 16.27 30.58                                                             
C 25.50 16.27 44.16                                                             
C 25.50 16.27 57.75                                                             
C 29.52 13.95  3.40                                                             
C 29.52 13.95 16.99                                                             
C 29.52 13.95 30.58                                                             
C 29.52 13.95 44.16                                                             
C 29.52 13.95 57.75                                                             
C  2.68  0.00 10.19                                                             
C  2.68  0.00 23.78                                                             
C  2.68  0.00 37.37                                                             
C  2.68  0.00 50.96                                                             
C  2.68  0.00 64.55                                                             
C  2.68  4.65 10.19                                                             
C  2.68  4.65 23.78                                                             
C  2.68  4.65 37.37                                                             
C  2.68  4.65 50.96                                                             
C  2.68  4.65 64.55                                                             
C  6.71  2.32 10.19                                                             
C  6.71  2.32 23.78                                                             
C  6.71  2.32 37.37                                                             
C  6.71  2.32 50.96                                                             
C  6.71  2.32 64.55                                                             
C 10.74  0.00 10.19                                                             
C 10.74  0.00 23.78                                                             
C 10.74  0.00 37.37                                                             
C 10.74  0.00 50.96                                                             
C 10.74  0.00 64.55                                                             
C  2.68  9.30 10.19                                                             
C  2.68  9.30 23.78                                                             
C  2.68  9.30 37.37                                                             
C  2.68  9.30 50.96                                                             
C  2.68  9.30 64.55                                                             
C  6.71  6.97 10.19                                                             
C  6.71  6.97 23.78                                                             
C  6.71  6.97 37.37                                                             
C  6.71  6.97 50.96                                                             
C  6.71  6.97 64.55                                                             
C 10.74  4.65 10.19                                                             
C 10.74  4.65 23.78                                                             
C 10.74  4.65 37.37                                                             
C 10.74  4.65 50.96                                                             
C 10.74  4.65 64.55                                                             
C 14.76  2.32 10.19                                                             
C 14.76  2.32 23.78                                                             
C 14.76  2.32 37.37                                                             
C 14.76  2.32 50.96                                                             
C 14.76  2.32 64.55                                                             
C 18.79  0.00 10.19                                                             
C 18.79  0.00 23.78                                                             
C 18.79  0.00 37.37                                                             
C 18.79  0.00 50.96                                                             
C 18.79  0.00 64.55                                                             
C  2.68 13.95 10.19                                                             
C  2.68 13.95 23.78                                                             
C  2.68 13.95 37.37                                                             
C  2.68 13.95 50.96                                                             
C  2.68 13.95 64.55                                                             
C  6.71 11.62 10.19                                                             
C  6.71 11.62 23.78                                                             
C  6.71 11.62 37.37                                                             
C  6.71 11.62 50.96                                                             
C  6.71 11.62 64.55                                                             
C 10.74  9.30 10.19                                                             
C 10.74  9.30 23.78                                                             
C 10.74  9.30 37.37                                                             
C 10.74  9.30 50.96                                                             
C 10.74  9.30 64.55                                                             
C 14.76  6.97 10.19                                                             
C 14.76  6.97 23.78                                                             
C 14.76  6.97 37.37                                                             
C 14.76  6.97 50.96                                                             
C 14.76  6.97 64.55                                                             
C 18.79  4.65 10.19                                                             
C 18.79  4.65 23.78                                                             
C 18.79  4.65 37.37                                                             
C 18.79  4.65 50.96                                                             
C 18.79  4.65 64.55                                                             
C 22.81  2.32 10.19                                                             
C 22.81  2.32 23.78                                                             
C 22.81  2.32 37.37                                                             
C 22.81  2.32 50.96                                                             
C 22.81  2.32 64.55                                                             
C 26.84  0.00 10.19                                                             
C 26.84  0.00 23.78                                                             
C 26.84  0.00 37.37                                                             
C 26.84  0.00 50.96                                                             
C 26.84  0.00 64.55                                                             
C  6.71 16.27 10.19                                                             
C  6.71 16.27 23.78                                                             
C  6.71 16.27 37.37                                                             
C  6.71 16.27 50.96                                                             
C  6.71 16.27 64.55                                                             
C 10.74 13.95 10.19                                                             
C 10.74 13.95 23.78                                                             
C 10.74 13.95 37.37                                                             
C 10.74 13.95 50.96                                                             
C 10.74 13.95 64.55                                                             
C 14.76 11.62 10.19                                                             
C 14.76 11.62 23.78                                                             
C 14.76 11.62 37.37                                                             
C 14.76 11.62 50.96                                                             
C 14.76 11.62 64.55                                                             
C 18.79  9.30 10.19                                                             
C 18.79  9.30 23.78                                                             
C 18.79  9.30 37.37                                                             
C 18.79  9.30 50.96                                                             
C 18.79  9.30 64.55                                                             
C 22.81  6.97 10.19                                                             
C 22.81  6.97 23.78                                                             
C 22.81  6.97 37.37                                                             
C 22.81  6.97 50.96                                                             
C 22.81  6.97 64.55                                                             
C 26.84  4.65 10.19                                                             
C 26.84  4.65 23.78                                                             
C 26.84  4.65 37.37                                                             
C 26.84  4.65 50.96                                                             
C 26.84  4.65 64.55                                                             
C 30.86  2.32 10.19                                                             
C 30.86  2.32 23.78                                                             
C 30.86  2.32 37.37                                                             
C 30.86  2.32 50.96                                                             
C 30.86  2.32 64.55                                                             
C 14.76 16.27 10.19                                                             
C 14.76 16.27 23.78                                                             
C 14.76 16.27 37.37                                                             
C 14.76 16.27 50.96                                                             
C 14.76 16.27 64.55                                                             
C 18.79 13.95 10.19                                                             
C 18.79 13.95 23.78                                                             
C 18.79 13.95 37.37                                                             
C 18.79 13.95 50.96                                                             
C 18.79 13.95 64.55                                                             
C 22.81 11.62 10.19                                                             
C 22.81 11.62 23.78                                                             
C 22.81 11.62 37.37                                                             
C 22.81 11.62 50.96                                                             
C 22.81 11.62 64.55                                                             
C 26.84  9.30 10.19                                                             
C 26.84  9.30 23.78                                                             
C 26.84  9.30 37.37                                                             
C 26.84  9.30 50.96                                                             
C 26.84  9.30 64.55                                                             
C 30.86  6.97 10.19                                                             
C 30.86  6.97 23.78                                                             
C 30.86  6.97 37.37                                                             
C 30.86  6.97 50.96                                                             
C 30.86  6.97 64.55                                                             
C 22.81 16.27 10.19                                                             
C 22.81 16.27 23.78                                                             
C 22.81 16.27 37.37                                                             
C 22.81 16.27 50.96                                                             
C 22.81 16.27 64.55                                                             
C 26.84 13.95 10.19                                                             
C 26.84 13.95 23.78                                                             
C 26.84 13.95 37.37                                                             
C 26.84 13.95 50.96                                                             
C 26.84 13.95 64.55                                                             
C 30.86 11.62 10.19                                                             
C 30.86 11.62 23.78                                                             
C 30.86 11.62 37.37                                                             
C 30.86 11.62 50.96                                                             
C 30.86 11.62 64.55                                                             
C 30.86 16.27 10.19                                                             
C 30.86 16.27 23.78                                                             
C 30.86 16.27 37.37                                                             
C 30.86 16.27 50.96                                                             
C 30.86 16.27 64.55                                                             
%ENDBLOCK POSITIONS_ABS                                                         

--------------------------------------------------------------------------------
-------------------------------- END INPUT FILE --------------------------------
--------------------------------------------------------------------------------


 
<<<<<<<<<<<<<<<<<<<<<<<<<<<<<<<<< Full system >>>>>>>>>>>>>>>>>>>>>>>>>>>>>>>>>>
<<<<<<<<<<<<<<<<<<<<<<<<<<< PAW Dataset information >>>>>>>>>>>>>>>>>>>>>>>>>>>
File: ~/pp/paw/c_pbe_abinit.paw; rc = 1.25 bohr; shape type =  3; rshape = 1.25 bohr;
  Atomic number:  6;  ionic charge:  4.000000
    Partial Wave 1: l = 0
    Partial Wave 2: l = 0
    Partial Wave 3: l = 1
    Partial Wave 4: l = 1
  Core charge supplied for Nonlinear Core Corrections
<<<<<<<<<<<<<<<<<<<<<<<<<<<<<<<<<<<<<<< >>>>>>>>>>>>>>>>>>>>>>>>>>>>>>>>>>>>>>>

-------------------------- Atom counting information ---------------------------
Symbol    Natoms    Nngwfs    Nprojs
  C        640      2560      5120
.......   ......    ......    ......
Totals:    640      2560      5120
--------------------------------------------------------------------------------

=============================== PSINC grid sizes ===============================
                      Simulation cell:   63 x  35 x 134
                              FFT-box:   63 x  35 x 117
                                  PPD:    7 x   5 x   1
Grid space d1=  0.511269841270a0 (KE cutoff=  29.06054Eh = 790.77748eV)
Grid space d2=  0.531142857143a0 (KE cutoff=  26.92659Eh = 732.70972eV)
Grid space d3=  0.507014925373a0 (KE cutoff=  29.55034Eh = 804.10572eV)
================================================================================
  
WARNING in cell_grid_distribute:
Average of less than one 23-slab per node, so workload cannot be
equally balanced between nodes.

********************* Fourier parallelisation information **********************
       Coarse grid (whole simulation cell) dimensions:     63    35   134
          Real-space ('12') slabs/node (min max mean):      3     4     3
         Recip-space ('23') slabs/node (min max mean):      0     1     0
********************************************************************************

********************* Fourier parallelisation information **********************
       Double grid (whole simulation cell) dimensions:    126    70   268
          Real-space ('12') slabs/node (min max mean):      6     7     6
         Recip-space ('23') slabs/node (min max mean):      1     2     1
********************************************************************************

Atom SCF Calculation for C  : Z (AE atom) =   6 : Z (PS atom) =   4
Config String: 2s2 2p2
Orbitals (num,occ):  2     2.00 2.00
Orbitals   (num,l):  2        0    1
Real-space Grid (nr,dr,rmax): 1293    0.0069659443    9.0000000000
Spherical Bessel Basis (nsws,lmax,cutoff):   37    2  161.4736382572
Confining potential (l,width,scale):  0    3.0000000000  100.0000000000
Confining potential (l,width,scale):  1    3.0000000000  100.0000000000
  1         -5.4966243538   -1.3415066196    4.5135257941   -1.6613421942
  2         -5.4660395227   -1.4172174419    4.4326892861   -1.6365362708
  3         -5.4759582348   -1.4337557188    4.4144498970   -1.6324663609
  4         -5.4843804720   -1.4365219414    4.4114201180   -1.6322033818
  5         -5.4882713954   -1.4381734139    4.4096331461   -1.6320227940
  6         -5.4902132675   -1.4390636620    4.4086785626   -1.6319270645
  7         -5.4912093711   -1.4395303631    4.4081823351   -1.6318789226
  8         -5.4917264140   -1.4397726342    4.4079268833   -1.6318551036
  9         -5.4919964206   -1.4398979410    4.4077958777   -1.6318434025
 10         -5.4921379132   -1.4399626875    4.4077287721   -1.6318376788
 11         -5.4922122245   -1.4399961532    4.4076943935   -1.6318348878
 12         -5.4922513136   -1.4400134684    4.4076767658   -1.6318335308
 13         -5.4922719001   -1.4400224400    4.4076677156   -1.6318328728
 14         -5.4922827535   -1.4400270959    4.4076630621   -1.6318325547
 15         -5.4922884809   -1.4400295164    4.4076606653   -1.6318324014
 16         -5.4922915059   -1.4400307770    4.4076594286   -1.6318323279
 17         -5.4922931051   -1.4400314347    4.4076587894   -1.6318322927
 18         -5.4922939512   -1.4400317785    4.4076584583   -1.6318322760
 19         -5.4922943993   -1.4400319585    4.4076582865   -1.6318322681
 20         -5.4922946368   -1.4400320529    4.4076581972   -1.6318322644
 21         -5.4922947627   -1.4400321025    4.4076581507   -1.6318322627
 22         -5.4922948296   -1.4400321287    4.4076581265   -1.6318322619
Atom SCF converged after  22 iterations to a total energy of     -5.49229483

Determining parallel strategy ...
... using space-filling curve
... NGWF load balancing: max     64;  min     64;  average     64
... Projector load balancing: max    128;  min    128;  average    128
... done
Calculating Ewald energy ...
              Ewald: real-space energy =    9483.351908
        Ewald: reciprocal-space energy =       0.212599
         Ewald: (sum_charge)**2 Energy =   11055.830996
         Ewald: (sum_charge**2) Energy =     874.040184
                          Ewald Energy =   -2446.306672
Basis initialisation ...... NGWF spheres initialised
... Projector spheres initialised
... NGWF tight boxes initialised
... Projector tight boxes initialised
... Tight-boxes gathered
... NGWF basis size (local,global):     693332  27908448
... PAW projector initialisation
... done

============================= Charge Augmentation ==============================
                           Aug box size:   11 x  11 x  11
================================================================================

========================== Sparse matrix information ===========================
                        Overlap matrix filling:  42.19%
                        Density kernel filling: 100.00%
              NGWF-Proj overlap matrix filling:  12.19%
                    Aug Overlap matrix filling:  47.03%
                    Hamiltonian matrix filling:  47.03%
                  NGWF diagonal matrix filling:   0.16%
                             KS matrix filling: 100.00% 
                           KSKS matrix filling: 100.00% 
================================================================================

Sparse matrix initialisation ... done
NGWF initialisation ...... done
============ Calculation of NGWF S^-1 using Hotelling algorithm ================ 
         Iteration  |  Frobenius norm and Maximum abs value    (of I-S*S_n^-1)   
               1       0.49025904E+02     0.97550325E+00
               2       0.47776501E+02     0.95287421E+00
               3       0.45911159E+02     0.91229320E+00
               4       0.43504468E+02     0.84521051E+00
               5       0.40628538E+02     0.74599992E+00
               6       0.37287100E+02     0.67762610E+00
               7       0.33805267E+02     0.62975727E+00
               8       0.30472130E+02     0.58922963E+00
               9       0.26884224E+02     0.54424839E+00
              10       0.22328537E+02     0.47347729E+00
              11       0.16397742E+02     0.36175357E+00
              12       0.96067431E+01     0.21628875E+00
              13       0.37794465E+01     0.82713490E-01
              14       0.70339787E+00     0.13975971E-01
              15       0.29575558E-01     0.49642499E-03
              16       0.70055785E-04     0.83921309E-06
              17       0.60118285E-09     0.43132165E-11
              18       0.73332463E-13     0.45519144E-14
================================================================================
Calculating core density ...
================================= Core Density =================================
               Core den box size:   21 x  21 x  21
================================================================================
 ... done
Up spin density kernel initialisation ...... done

Writing density kernel to file "3.5954808_GO_manual_4x64graphite.dkn" ... done

>>> Optimising kernel for current NGWFs:

--------------------------- Ensemble-DFT optimisation --------------------------
Running ScaLAPACK on   40 processor(s).

--------------------------------------------------------------------------------
  Iter                              Commutator    Free_energy(A=E-TS)     DeltaA
#    0                          0.000038844166   -3654.87275441286010  -3.65E+03

Step                       =       0.381966011250
Energy                     =   -3654.872726235656
Entropy (-TS)              =      -0.000028177143
Free energy (A=E-TS)       =   -3654.872754412860
Est. 0K Energy 0.5*(E+A)   =   -3654.872740324258
Residual Non-orthogonality =       0.000000000000
Residual N_electrons       =      -0.000000000061

Spin          Integrated_Ne            Fermi_level     Delta_Fermi_level
   1      2560.000000000340         0.179441102933              1.79E-01

                           Spin 1          
     Orb      H-eigenvalues     Occupancies
       1 |    -0.5452229031    1.0000000000 | 
                          ------
    1276 |     0.1447815949    0.9999823474 | 
    1277 |     0.1453960090    0.9999785677 | 
    1278 |     0.1454087583    0.9999784813 | 
    1279 |     0.1456558087    0.9999767354 | 
    1280 |     0.1462818833    0.9999716500 | 
                 - Gap at zero temperature -
    1281 |     0.2151260396    0.0000127698 | 
    1282 |     0.2151439316    0.0000126979 | 
    1283 |     0.2151516179    0.0000126671 | 
    1284 |     0.2153387201    0.0000119404 | 
    1285 |     0.2153516542    0.0000118917 | 
                          ------
    2560 |     1.0135655091    0.0000000000 | 

                       |  Abs_value |  Threshold | Converged
     Delta_Free_energy |   3.65E+03 |   1.00E-06 |        No
     Delta_Energy      |   3.65E+03 |   1.00E-04 |        No
     Delta_Entropy     |   2.82E-05 |   1.00E-04 |       Yes
     Commutator        |   3.88E-05 |   1.00E-05 |        No
     Delta_Fermi_level |   1.79E-01 |   1.00E-03 |        No

  Line search of the free energy minimum:
  Step_type        Step             Free_energy   Predicted_free_energy
.   Initial    0.000000    -3654.87275441286010
.    Trial1    0.381966    -3654.87434816496307
.    Trial2    0.618034    -3654.87467006456563
. Quadratic    0.650013    -3654.87467495841292    -3654.87467471237233

--------------------------------------------------------------------------------
  Iter                              Commutator    Free_energy(A=E-TS)     DeltaA
#    1                          0.000021362516   -3654.87467495841292  -1.92E-03

Step                       =       0.650012732250
Energy                     =   -3654.874647578799
Entropy (-TS)              =      -0.000027379549
Free energy (A=E-TS)       =   -3654.874674958413
Est. 0K Energy 0.5*(E+A)   =   -3654.874661268606
Residual Non-orthogonality =       0.000000000000
Residual N_electrons       =      -0.000000000065

Spin          Integrated_Ne            Fermi_level     Delta_Fermi_level
   1      2560.000000000360         0.179555587615              1.14E-04

                           Spin 1          
     Orb      H-eigenvalues     Occupancies
       1 |    -0.5471894764    1.0000000000 | 
                          ------
    1276 |     0.1448967933    0.9999823434 | 
    1277 |     0.1453301693    0.9999797540 | 
    1278 |     0.1453552184    0.9999795932 | 
    1279 |     0.1457703358    0.9999767350 | 
    1280 |     0.1462274720    0.9999731223 | 
                 - Gap at zero temperature -
    1281 |     0.2152599617    0.0000126917 | 
    1282 |     0.2152962434    0.0000125471 | 
    1283 |     0.2153007690    0.0000125292 | 
    1284 |     0.2154725627    0.0000118676 | 
    1285 |     0.2155040426    0.0000117502 | 
                          ------
    2560 |     1.0132129206    0.0000000000 | 

                       |  Abs_value |  Threshold | Converged
     Delta_Free_energy |   1.92E-03 |   1.00E-06 |        No
     Delta_Energy      |   1.92E-03 |   1.00E-04 |        No
     Delta_Entropy     |   7.98E-07 |   1.00E-04 |       Yes
     Commutator        |   2.14E-05 |   1.00E-05 |        No
     Delta_Fermi_level |   1.14E-04 |   1.00E-03 |       Yes

  Line search of the free energy minimum:
  Step_type        Step             Free_energy   Predicted_free_energy
.   Initial    0.000000    -3654.87467495841292
.    Trial1    0.650013    -3654.87391820981429
.    Trial2    0.248283    -3654.87508845365574
. Quadratic    0.242364    -3654.87508871862110    -3654.87508870044030

--------------------------------------------------------------------------------
  Iter                              Commutator    Free_energy(A=E-TS)     DeltaA
#    2                          0.000010722203   -3654.87508871862110  -4.14E-04

Step                       =       0.242363591782
Energy                     =   -3654.875061460229
Entropy (-TS)              =      -0.000027258396
Free energy (A=E-TS)       =   -3654.875088718621
Est. 0K Energy 0.5*(E+A)   =   -3654.875075089425
Residual Non-orthogonality =       0.000000000000
Residual N_electrons       =       0.000000000004

Spin          Integrated_Ne            Fermi_level     Delta_Fermi_level
   1      2559.999999999975         0.179571654124              1.61E-05

                           Spin 1          
     Orb      H-eigenvalues     Occupancies
       1 |    -0.5474470280    1.0000000000 | 
                          ------
    1276 |     0.1448640893    0.9999826132 | 
    1277 |     0.1453579469    0.9999796790 | 
    1278 |     0.1453823120    0.9999795220 | 
    1279 |     0.1457368291    0.9999770964 | 
    1280 |     0.1462537933    0.9999730351 | 
                 - Gap at zero temperature -
    1281 |     0.2153126524    0.0000125458 | 
    1282 |     0.2153471730    0.0000124097 | 
    1283 |     0.2153525255    0.0000123888 | 
    1284 |     0.2155295969    0.0000117151 | 
    1285 |     0.2155607801    0.0000116003 | 
                          ------
    2560 |     1.0131608583    0.0000000000 | 

                       |  Abs_value |  Threshold | Converged
     Delta_Free_energy |   4.14E-04 |   1.00E-06 |        No
     Delta_Energy      |   4.14E-04 |   1.00E-04 |        No
     Delta_Entropy     |   1.21E-07 |   1.00E-04 |       Yes
     Commutator        |   1.07E-05 |   1.00E-05 |        No
     Delta_Fermi_level |   1.61E-05 |   1.00E-03 |       Yes

  Line search of the free energy minimum:
  Step_type        Step             Free_energy   Predicted_free_energy
.   Initial    0.000000    -3654.87508871862110
.    Trial1    0.242364    -3654.87518105949721
.    Trial2    0.531755    -3654.87518650115408
. Quadratic    0.400863    -3654.87519815373525    -3654.87519817094517

--------------------------------------------------------------------------------
  Iter                              Commutator    Free_energy(A=E-TS)     DeltaA
#    3                          0.000007238556   -3654.87519815373525  -1.09E-04

Step                       =       0.400862525820
Energy                     =   -3654.875171045547
Entropy (-TS)              =      -0.000027108120
Free energy (A=E-TS)       =   -3654.875198153735
Est. 0K Energy 0.5*(E+A)   =   -3654.875184599641
Residual Non-orthogonality =       0.000000000000
Residual N_electrons       =      -0.000000000068

Spin          Integrated_Ne            Fermi_level     Delta_Fermi_level
   1      2560.000000000379         0.179591185408              1.95E-05

                           Spin 1          
     Orb      H-eigenvalues     Occupancies
       1 |    -0.5477601250    1.0000000000 | 
                          ------
    1276 |     0.1448474369    0.9999828107 | 
    1277 |     0.1453719613    0.9999797144 | 
    1278 |     0.1453955934    0.9999795624 | 
    1279 |     0.1457200907    0.9999773572 | 
    1280 |     0.1462670060    0.9999730889 | 
                 - Gap at zero temperature -
    1281 |     0.2153613606    0.0000124307 | 
    1282 |     0.2153945667    0.0000123010 | 
    1283 |     0.2154002792    0.0000122789 | 
    1284 |     0.2155809929    0.0000115978 | 
    1285 |     0.2156117232    0.0000114858 | 
                          ------
    2560 |     1.0131189961    0.0000000000 | 

                       |  Abs_value |  Threshold | Converged
     Delta_Free_energy |   1.09E-04 |   1.00E-06 |        No
     Delta_Energy      |   1.10E-04 |   1.00E-04 |        No
     Delta_Entropy     |   1.50E-07 |   1.00E-04 |       Yes
     Commutator        |   7.24E-06 |   1.00E-05 |       Yes
     Delta_Fermi_level |   1.95E-05 |   1.00E-03 |       Yes

  Line search of the free energy minimum:
  Step_type        Step             Free_energy   Predicted_free_energy
.   Initial    0.000000    -3654.87519815373525
.    Trial1    0.400863    -3654.87522792444270
.    Trial2    0.629713    -3654.87514877938702
. Quadratic    0.256092    -3654.87524192438605    -3654.87524190663817

--------------------------------------------------------------------------------
  Iter                              Commutator    Free_energy(A=E-TS)     DeltaA
#    4                          0.000004617659   -3654.87524192438605  -4.38E-05

Step                       =       0.256091977325
Energy                     =   -3654.875214872900
[...]
 C   160 -- C   385       -0.10      5.37000
 C   159 -- C   384       -0.10      5.37000
 C   158 -- C   383       -0.10      5.37000
 C   157 -- C   382       -0.10      5.37000
 C   156 -- C   381       -0.10      5.37000
 C   155 -- C   355       -0.10      5.37000
 C   154 -- C   354       -0.10      5.37000
 C   153 -- C   353       -0.10      5.37000
 C   152 -- C   352       -0.10      5.37000
 C   151 -- C   351       -0.10      5.37000
 C   140 -- C   335       -0.10      5.37000
 C   139 -- C   334       -0.10      5.37000
 C   138 -- C   333       -0.10      5.37000
 C   137 -- C   332       -0.10      5.37000
 C   136 -- C   331       -0.10      5.37000
 C   115 -- C   325       -0.10      5.37000
 C   114 -- C   324       -0.10      5.37000
 C   113 -- C   323       -0.10      5.37000
 C   112 -- C   322       -0.10      5.37000
 C   111 -- C   321       -0.10      5.37000
 C   219 -- C   569       -0.10      5.37202
 C   218 -- C   568       -0.10      5.37202
 C   217 -- C   567       -0.10      5.37202
 C   216 -- C   566       -0.10      5.37202
 C   250 -- C   540       -0.10      5.37202
 C   249 -- C   539       -0.10      5.37202
 C   248 -- C   538       -0.10      5.37202
 C   247 -- C   537       -0.10      5.37202
 C   246 -- C   536       -0.10      5.37202
 C   220 -- C   570       -0.10      5.37202
 C   285 -- C   580       -0.10      5.37202
 C   284 -- C   579       -0.10      5.37202
 C   283 -- C   578       -0.10      5.37202
 C   282 -- C   577       -0.10      5.37202
 C   281 -- C   576       -0.10      5.37202
 C   260 -- C   605       -0.10      5.37202
 C   259 -- C   604       -0.10      5.37202
 C   258 -- C   603       -0.10      5.37202
 C   257 -- C   602       -0.10      5.37202
 C   256 -- C   601       -0.10      5.37202
 C   220 -- C   515       -0.10      5.37202
 C   219 -- C   514       -0.10      5.37202
 C   218 -- C   513       -0.10      5.37202
 C   217 -- C   512       -0.10      5.37202
 C   216 -- C   511       -0.10      5.37202
 C   195 -- C   540       -0.10      5.37202
 C   195 -- C   500       -0.10      5.37202
 C   194 -- C   539       -0.10      5.37202
 C   194 -- C   499       -0.10      5.37202
 C   193 -- C   538       -0.10      5.37202
 C   193 -- C   498       -0.10      5.37202
 C   192 -- C   537       -0.10      5.37202
 C   192 -- C   497       -0.10      5.37202
 C   191 -- C   536       -0.10      5.37202
 C   191 -- C   496       -0.10      5.37202
 C   180 -- C   515       -0.10      5.37202
 C   179 -- C   514       -0.10      5.37202
 C   178 -- C   513       -0.10      5.37202
 C   177 -- C   512       -0.10      5.37202
 C   176 -- C   511       -0.10      5.37202
 C    11 -- C   331       -0.10      5.37202
 C   205 -- C   550       -0.10      5.37202
 C   204 -- C   549       -0.10      5.37202
 C   203 -- C   548       -0.10      5.37202
 C   202 -- C   547       -0.10      5.37202
 C   201 -- C   546       -0.10      5.37202
 C    95 -- C   425       -0.10      5.37202
 C    95 -- C   365       -0.10      5.37202
 C    94 -- C   424       -0.10      5.37202
 C    94 -- C   364       -0.10      5.37202
 C    93 -- C   423       -0.10      5.37202
 C    93 -- C   363       -0.10      5.37202
 C    92 -- C   422       -0.10      5.37202
 C    92 -- C   362       -0.10      5.37202
 C    91 -- C   421       -0.10      5.37202
 C    91 -- C   361       -0.10      5.37202
 C    40 -- C   365       -0.10      5.37202
 C    39 -- C   364       -0.10      5.37202
 C    38 -- C   363       -0.10      5.37202
 C    37 -- C   362       -0.10      5.37202
 C    36 -- C   361       -0.10      5.37202
 C    15 -- C   335       -0.10      5.37202
 C    65 -- C   395       -0.10      5.37202
 C    65 -- C   345       -0.10      5.37202
 C    64 -- C   394       -0.10      5.37202
 C    64 -- C   344       -0.10      5.37202
 C    63 -- C   393       -0.10      5.37202
 C    30 -- C   355       -0.10      5.37202
 C    63 -- C   343       -0.10      5.37202
 C    62 -- C   392       -0.10      5.37202
 C    30 -- C   325       -0.10      5.37202
 C    14 -- C   334       -0.10      5.37202
 C    62 -- C   342       -0.10      5.37202
 C    61 -- C   391       -0.10      5.37202
 C    29 -- C   354       -0.10      5.37202
 C    61 -- C   341       -0.10      5.37202
 C    29 -- C   324       -0.10      5.37202
 C   260 -- C   550       -0.10      5.37202
 C   259 -- C   549       -0.10      5.37202
 C    28 -- C   353       -0.10      5.37202
 C   258 -- C   548       -0.10      5.37202
 C   257 -- C   547       -0.10      5.37202
 C   256 -- C   546       -0.10      5.37202
 C    28 -- C   323       -0.10      5.37202
 C    27 -- C   352       -0.10      5.37202
 C    13 -- C   333       -0.10      5.37202
 C    27 -- C   322       -0.10      5.37202
 C   120 -- C   395       -0.10      5.37202
 C    26 -- C   351       -0.10      5.37202
 C   119 -- C   394       -0.10      5.37202
 C   118 -- C   393       -0.10      5.37202
 C    55 -- C   335       -0.10      5.37202
 C   117 -- C   392       -0.10      5.37202
 C    26 -- C   321       -0.10      5.37202
 C   116 -- C   391       -0.10      5.37202
 C    54 -- C   334       -0.10      5.37202
 C    12 -- C   332       -0.10      5.37202
 C    53 -- C   333       -0.10      5.37202
 C   230 -- C   580       -0.10      5.37202
 C   230 -- C   525       -0.10      5.37202
 C   229 -- C   579       -0.10      5.37202
 C   229 -- C   524       -0.10      5.37202
 C   228 -- C   578       -0.10      5.37202
 C    52 -- C   332       -0.10      5.37202
 C   228 -- C   523       -0.10      5.37202
 C   227 -- C   577       -0.10      5.37202
 C   227 -- C   522       -0.10      5.37202
 C   226 -- C   576       -0.10      5.37202
 C   226 -- C   521       -0.10      5.37202
 C    51 -- C   331       -0.10      5.37202
 C    23 -- C   478       -0.10      5.37202
 C    49 -- C   469       -0.10      5.37202
 C    48 -- C   468       -0.10      5.37202
 C    47 -- C   467       -0.10      5.37202
 C    22 -- C   477       -0.10      5.37202
 C    46 -- C   466       -0.10      5.37202
 C    21 -- C   476       -0.10      5.37202
 C    85 -- C   355       -0.10      5.37202
 C    84 -- C   354       -0.10      5.37202
 C    83 -- C   353       -0.10      5.37202
 C    82 -- C   352       -0.10      5.37202
 C    81 -- C   351       -0.10      5.37202
 C    55 -- C   385       -0.10      5.37202
 C    54 -- C   384       -0.10      5.37202
 C    25 -- C   480       -0.10      5.37202
 C    53 -- C   383       -0.10      5.37202
 C    52 -- C   382       -0.10      5.37202
 C    51 -- C   381       -0.10      5.37202
 C    24 -- C   479       -0.10      5.37202
 C    50 -- C   470       -0.10      5.37202
 C    24 -- C   449       -0.10      5.37202
 C     6 -- C   416       -0.10      5.37202
 C    23 -- C   448       -0.10      5.37202
 C    22 -- C   447       -0.10      5.37202
 C    10 -- C   470       -0.10      5.37202
 C     5 -- C   450       -0.10      5.37202
 C    21 -- C   446       -0.10      5.37202
 C    10 -- C   420       -0.10      5.37202
 C     9 -- C   469       -0.10      5.37202
 C     9 -- C   419       -0.10      5.37202
 C     8 -- C   468       -0.10      5.37202
 C     4 -- C   449       -0.10      5.37202
 C   150 -- C   440       -0.10      5.37202
 C   149 -- C   439       -0.10      5.37202
 C   148 -- C   438       -0.10      5.37202
 C   147 -- C   437       -0.10      5.37202
 C     8 -- C   418       -0.10      5.37202
 C   146 -- C   436       -0.10      5.37202
 C     2 -- C   447       -0.10      5.37202
 C   135 -- C   460       -0.10      5.37202
 C     7 -- C   467       -0.10      5.37202
 C   134 -- C   459       -0.10      5.37202
 C   133 -- C   458       -0.10      5.37202
 C   132 -- C   457       -0.10      5.37202
 C   131 -- C   456       -0.10      5.37202
 C     7 -- C   417       -0.10      5.37202
 C     1 -- C   446       -0.10      5.37202
 C     6 -- C   466       -0.10      5.37202
 C    25 -- C   450       -0.10      5.37202
 C     3 -- C   448       -0.10      5.37202
 C   106 -- C   436       -0.10      5.37202
 C   106 -- C   376       -0.10      5.37202
 C    80 -- C   410       -0.10      5.37202
 C    79 -- C   409       -0.10      5.37202
 C    78 -- C   408       -0.10      5.37202
 C    77 -- C   407       -0.10      5.37202
 C    76 -- C   406       -0.10      5.37202
 C   135 -- C   410       -0.10      5.37202
 C   134 -- C   409       -0.10      5.37202
 C   133 -- C   408       -0.10      5.37202
 C   132 -- C   407       -0.10      5.37202
 C   131 -- C   406       -0.10      5.37202
 C   110 -- C   440       -0.10      5.37202
 C   110 -- C   380       -0.10      5.37202
 C   109 -- C   439       -0.10      5.37202
 C   109 -- C   379       -0.10      5.37202
 C   108 -- C   438       -0.10      5.37202
 C   108 -- C   378       -0.10      5.37202
 C   107 -- C   437       -0.10      5.37202
 C   107 -- C   377       -0.10      5.37202
 C   215 -- C   635       -0.10      5.38000
 C   214 -- C   634       -0.10      5.38000
 C   213 -- C   633       -0.10      5.38000
 C   212 -- C   632       -0.10      5.38000
 C   211 -- C   631       -0.10      5.38000
 C   190 -- C   620       -0.10      5.38000
 C   189 -- C   619       -0.10      5.38000
 C   188 -- C   618       -0.10      5.38000
 C   187 -- C   617       -0.10      5.38000
 C   186 -- C   616       -0.10      5.38000
 C   175 -- C   595       -0.10      5.38000
 C   174 -- C   594       -0.10      5.38000
 C   173 -- C   593       -0.10      5.38000
 C   172 -- C   592       -0.10      5.38000
 C   171 -- C   591       -0.10      5.38000
 C   245 -- C   640       -0.10      5.38000
 C   244 -- C   639       -0.10      5.38000
 C   243 -- C   638       -0.10      5.38000
 C   242 -- C   637       -0.10      5.38000
 C   241 -- C   636       -0.10      5.38000
==================================================


=================== Orbital energy and occupancy information ===================

      Total number of orbitals:    2560
        Occupancy sum (kernel):    1279.999999999
   Occupancy sum (eigenvalues):    1279.999999999
                 HOMO-LUMO gap:       0.065551993 Eh
                 Mid-gap level:       0.233508699 Eh

                        Orbital | Energy (Eh) | Occupancy
                            1    -0.490277081   1.0000000
                        .......   ...........   .........
                         1271     0.195886508   0.9999893
                         1272     0.195927880   0.9999892
                         1273     0.196358480   0.9999876
                         1274     0.196399832   0.9999874
                         1275     0.199242400   0.9999692
                         1276     0.199252643   0.9999691
                         1277     0.199709682   0.9999643
                         1278     0.199720000   0.9999642
                         1279     0.200269870   0.9999574
                         1280     0.200732702   0.9999507
                        ....... -- gap at 0K -- .........
                         1281     0.266284695   0.0000206
                         1282     0.266300023   0.0000205
                         1283     0.266539184   0.0000190
                         1284     0.266554436   0.0000189
                         1285     0.266636738   0.0000185
                         1286     0.266647581   0.0000184
                         1287     0.266902457   0.0000170
                         1288     0.266913301   0.0000169
                         1289     0.266938344   0.0000168
                         1290     0.267207642   0.0000155
                        .......   ...........   .........
                         2560     1.126356016   0.0000000

================================================================================

===================== Writing canonical molecular orbitals =====================
| Orbital  Energy (eV)  Norm     |
| HOMO      5.46221476  1.000000 | Writing "3.5954808_GO_manual_4x64graphite_HOMO.cube" ... done
Writing "3.5954808_GO_manual_4x64graphite_HOMO.dx" ... done
| LUMO      7.24597526  1.000000 | Writing "3.5954808_GO_manual_4x64graphite_LUMO.cube" ... done
Writing "3.5954808_GO_manual_4x64graphite_LUMO.dx" ... done
================================================================================
 
===================== Density of States (DOS) calculation ======================
Writing "3.5954808_GO_manual_4x64graphite_DOS.txt" ...  done
================================================================================
 
Writing bands to file "3.5954808_GO_manual_4x64graphite.val_bands" ... done
 
================ Projected Density of States (pDOS) calculation ================
 
Constructing AM resolved functions  ...... done
Writing NGWF plot files in formats: CUBE DX ...  done
 
Performing overlap integrals ...  done
 
Computing pDOS weights ...  done
 
All bands spilling parameter =   3.34 %
Occupancy-weighted spilling parameter =   0.94 %
 
 => Outputting data for OptaDOS <=
 
Writing pDOS weights to file "3.5954808_GO_manual_4x64graphite.val_pdos_bin" ... done
 
Writing band gradients to file "3.5954808_GO_manual_4x64graphite.val_dome_bin" ... done
 
Writing Castep output cell file to "3.5954808_GO_manual_4x64graphite-out.cell" ... done
 
 => Computing Gaussian smeared pDOS <= 
Writing "3.5954808_GO_manual_4x64graphite_PDOS.txt" ...  done
 
 => Computing Occupancy-weighted Gaussian smeared pDOS <= 
Writing "3.5954808_GO_manual_4x64graphite_occ_PDOS.txt" ...  done
  => Band centres: 
 S band centre of group 1:  -13.855755 eV
 P band centre of group 1:   -6.705443 eV
  Band centres done. <=
  => Integrated number of electrons in each AM band: 
 S num electrons of group 1:  577.194600
 P num electrons of group 1: 1958.776594
  Integrated number of electrons done. <=
================================================================================

------------------------------ TIMING INFORMATION ------------------------------
AVERAGE TIME:    3479.980s on     40 node(s)                                    
TOTAL TIME:      3479.980s on     40 node(s)                                    
================= AVERAGE TIMINGS FROM ALL NODES (CUMULATIVE) ==================
|| TAG                                    #calls    cpu time   %total  Gflops ||
|| work_imbalance                       :     1        0.00s   0.000%  ------ ||
|| paw_tcore_hartree_on_grid            :     1        0.01s   0.000%  ------ ||
|| paw_tcore_density                    :     1        0.01s   0.000%  ------ ||
|| paw_sphere_density_on_grid           :     1        0.02s   0.000%  ------ ||
|| sparse_set_to_garbage                :   147        0.02s   0.001%  ------ ||
|| paw_dij_hartree                      :   318        0.04s   0.001%  ------ ||
|| pseudo_make_structure_factor         :     1        0.07s   0.002%  ------ ||
|| basis_extract_function_from_box      :  1664        0.07s   0.002%  ------ ||
|| paw_species_calc_proj_prec_mat       :     1        0.12s   0.003%  ------ ||
|| paw_dataset_init                     :     1        0.15s   0.004%  ------ ||
|| density_init_guess_real              :     1        0.24s   0.007%  ------ ||
|| ngwfs_initialise_from_radial         :     2        0.67s   0.019%  ------ ||
|| restart_kernel_write                 :    14        0.88s   0.025%  ------ ||
|| sparse_init                          :     1        0.92s   0.026%  ------ ||
|| dense_normal_eigensolve              :     1        0.95s   0.027%  ------ ||
|| hartree_on_grid                      :   240        1.66s   0.048%  ------ ||
|| projectors_init_fftbox_recip         :   131        2.52s   0.072%  ------ ||
|| ewald_calculate_energy               :     1        3.14s   0.090%  ------ ||
|| fourier_apply_box_pair               :  2464        4.07s   0.117% 560.921 ||
|| basis_copy_function_to_box           : 22592        4.88s   0.140%  ------ ||
|| augmentation_screen_dij              :   245        5.47s   0.157%  ------ ||
|| sw_init                              :     1        6.73s   0.193%  ------ ||
|| sparse_embed_hotelling_invert_embed  :    25        7.16s   0.206%  ------ ||
|| ngwf_gradient_coeffs                 :    13        8.93s   0.257%  ------ ||
|| cell_grid_extract_box_real           :  9500       15.74s   0.452%  ------ ||
|| sparse_trace                         :  2888       16.64s   0.478%  ------ ||
|| cell_grid_deposit_box_real           : 30896       19.61s   0.564%  ------ ||
|| fourier_apply_cell_backward          :  7411       19.89s   0.572%  47.107 ||
|| fourier_apply_cell_forward           :  6932       20.79s   0.597%  42.157 ||
|| paw_dij_xc                           :   318       20.92s   0.601%  ------ ||
|| aug_nonlocal_mat                     :   305       30.83s   0.886%  ------ ||
|| density_fftbox_deposit_to_cell       : 15360       38.50s   1.106%  ------ ||
|| augmentation_density_on_grid         :   240       41.36s   1.188%  ------ ||
|| hamiltonian_energy_components        :     3       46.49s   1.336%  ------ ||
|| function_ops_brappd_ketppd           :    52       51.40s   1.477%  ------ ||
|| eigenstates_pdos                     :     1       53.67s   1.542%  ------ ||
|| eigenstates_calculate                :     1       57.94s   1.665%  ------ ||
|| projectors_func_ovlp_box             :    26       58.33s   1.676%  ------ ||
|| nlxc_vdw_energy                      :   478       80.11s   2.302%  ------ ||
|| xc_energy_potential                  :   239       81.20s   2.333%  ------ ||
|| integrals_kinetic                    :    25       81.91s   2.354%  ------ ||
|| dense_eigensolve                     :   211      103.66s   2.979%  ------ ||
|| properties_calculate                 :     1      104.82s   3.012%  ------ ||
|| sparse_product                       :  2900      112.52s   3.233%  ------ ||
|| potential_apply_to_ngwf_batch        :   296      115.14s   3.309%  ------ ||
|| restart_ngwfs_tightbox_output        :    12      157.66s   4.530%  ------ ||
|| basis_dot_function_with_box          : 7.018M     194.60s   5.592%  ------ ||
|| fourier_apply_box                    : 71104      220.88s   6.347% 979.444 ||
|| edft_diag_ngwf_ham                   :   210      232.99s   6.695%  ------ ||
|| projectors_gradient_batch            :    52      236.80s   6.805%  ------ ||
|| integrals_locpot_mat_els_batch       :   296      253.62s   7.288%  ------ ||
|| density_fftbox_interpolate_multiply  : 15360      297.11s   8.538%  ------ ||
|| projectors_grad_precond_batch        :    52      325.32s   9.348%  ------ ||
|| integrals_locpot_dbl_grid            :    74      370.13s  10.636%  ------ ||
|| density_batch_interp_deposit         :   960      371.53s  10.676%  ------ ||
|| edft_apply_smearing_operator         :   210      454.19s  13.052%  ------ ||
|| basis_add_function_to_box            : 20.18M     537.82s  15.455%  ------ ||
|| ngwf_gradient_build_batch            :    52      601.43s  17.282%  ------ ||
|| density_batch_row_sums               :   960      737.66s  21.197%  ------ ||
|| ngwf_gradient_batch                  :    52      799.65s  22.979%  ------ ||
|| ngwf_gradient_lnv                    :    13      826.41s  23.747%  ------ ||
|| density_on_dbl_grid                  :   240     1123.75s  32.292%  ------ ||
|| hamiltonian_lhxc_calculate           :   235     1225.91s  35.227%  ------ ||
|| edft_calculate                       :    13     2035.85s  58.502%  ------ ||
|| ngwf_cg_optimise                     :     1     3349.63s  96.254%  ------ ||
|| total_time                           :     1     3479.98s 100.000%  ------ ||
================================================================================
Overhead of generating timer report: 
- 0 ms averaging over threads,
- 5 ms ensuring consistency across MPI ranks,
- 0 ms printing in order.

Job completed: 26-02-2020 02:34 (-0000)

