 +---------------------------------------------------------------+
 |                                                               |
 |        ####### #     # ####### ####### ####### ######         |
 |        #     # ##    # #          #    #       #     #        |
 |        #     # # #   # #          #    #       #     #        |
 |        #     # #  #  # #####      #    #####   ######         |
 |        #     # #   # # #          #    #       #              |
 |        #     # #    ## #          #    #       #              |
 |        ####### #     # #######    #    ####### #              |
 |                                                               |
 |        Linear-Scaling Ab Initio Total Energy Program          |
 |                                                               |
 |          Release for academic collaborators of ODG            |
 |                                             Version 5.3.2.12  |
 |                                                               |
 +---------------------------------------------------------------+
 |                                                               |
 |  Authors:                                                     |
 |  Jacek Dziedzic, Peter D. Haynes, Nicholas D. M. Hine,        |
 |  Arash. A. Mostofi, Mike C. Payne and Chris-Kriton Skylaris   |
 |                                                               |
 |  Contributors:                                                |
 |  J. Aarons, L. Andrinopoulos, P. W. Avraam, R. A. Bell,       |
 |  A. Bhandari, G. A. Bramley, R. J. Charlton, S. J. Clark,     |
 |  R. J. Clements, G. C. Constantinescu, F. Corsetti,           |
 |  N. Corsini, O. Dieguez, S. M. M. Dubois, K. K. B. Duff,      |
 |  J. M. Escartin, A. Greco, H. Helal, Q. O. Hill, L. P. Lee,   |
 |  J.-H. Li, E. B. Linscott, G. Moynihan, D. D. O`Regan,        |
 |  O. K. Okan, M. J. S. Phipps, C. J. Pickard,                  |
 |  J. C. A. Prentice, M. I. J. Probert, L. E. Ratcliff,         |
 |  M. Robinson, A. Ruiz Serrano, J. S. Spencer, E. W. Tait,     |
 |  G. Teobaldi, D. Turban, V. Vitale, K. A. Wilkinson,          |
 |  C. Weber, J. C. Womack, N. Yeung and T. J. Zuehlsdorff       |
 |                                                               |
 |                                   Copyright (c) 2004-2020     |
 |                                                               |
 |  Please cite:                                                 |
 |  "Introducing ONETEP: Linear-scaling density functional       |
 |   simulations on parallel computers".                         |
 |   C.-K. Skylaris, P. D. Haynes, A. A. Mostofi, M. C. Payne.   |
 |   J. Chem. Phys. 122 084119 (2005).                           |
 |                                                               |
 |          in all publications arising from your use of ONETEP. |
 |                                                               |
 +---------------------------------------------------------------+
 |                                                               |
 |   ONETEP is based on developments described in the following  |
 |   publications:                                               |
 |                                                               |
 |  "Nonorthogonal generalized Wannier function pseudopotential  |
 |   plane-wave method".                                         |
 |   C.-K. Skylaris, A. A. Mostofi, P. D. Haynes, O. Dieguez,    |
 |   M. C. Payne.                                                |
 |   Phys. Rev. B 66 035119 (2002).                              |
 |                                                               |
 |  "Preconditioned iterative minimization for linear-scaling    |
 |   electronic structure calculations".                         |
 |   A. A. Mostofi, P. D. Haynes, C.-K. Skylaris, M. C. Payne.   |
 |   J. Chem. Phys. 119(17), pp.8842-8848 (2003).                |
 |                                                               |
 |  "Total-energy calculations on a real space grid with         |
 |   localized functions and a plane-wave basis".                |
 |   A. A. Mostofi, C.-K. Skylaris, P. D. Haynes, M. C. Payne.   |
 |   Comput. Phys. Commun. 147, pp.788-802 (2002).               |
 |                                                               |
 |  "Accurate kinetic energy evaluation in electronic structure  |
 |   calculations with localized functions on real space grids"  |
 |   C.-K. Skylaris, A. A. Mostofi, P. D. Haynes, C. J. Pickard, |
 |   M. C. Payne.                                                |
 |   Comput. Phys. Commun. 140, pp.315-322 (2001).               |
 |                                                               |
 |  "Accurate ionic forces and geometry optimization in linear-  |
 |   scaling density-functional theory with local orbitals"      |
 |   N. D. M. Hine, M. Robinson, P. D. Haynes, C.-K. Skylaris,   |
 |   M. C. Payne, and A. A. Mostofi.                             |
 |   Phys. Rev. B 83 195102 (2011).                              |
 |                                                               |
 +---------------------------------------------------------------+

Job started: 29-02-2020 11:19 (-0000)
 
Reading parameters from file "3.756468_GO_manual_4x64graphite.dat" ...

WARNING: "cutoff_energy" not specified, but "psinc_spacing" specified.
         Using the latter to set the KE cutoff energy to  732.32021eV,
         thus *overriding* the default.

... done

If your calculation crashes here, before "Checking processes and threads..."
is displayed, then your stack size is insufficient.
If so, use "ulimit -s unlimited" at runtime.
You can disable this check with "check_stack_size F".

Checking processes and threads...
   Determining the default number of threads...
      No default threads set at compilation time: defaulting to 1.
      OpenMP library call suggests 4 threads.
      Hybrid MPI-OpenMP compilation detected.
      Number of MPI processes > 1.
      OMP_NUM_THREADS environment variable present and
      its value matches the one obtained from the OpenMP library call.
      Using this value as default.
      Default threads: 4
      Default applies to threads_max and threads_num_fftboxes.
      Settings in the input file override this default.
   ... done

   Running with 40 MPI processes.
   There are 10 MPI processes running on the same node as the root process.
   Each MPI process is using: 
               1 threads for simulation cell FFTs.
               1 threads for parallel FFT box operations.
               4 threads for loops over batched FFT box operations.
               4 threads in other parallel regions.
... done

Basic input checks...
Resetting ngwf_cg_rotate to TRUE for EDFT calculations
... done

Reading geometry and species blocks from file "3.756468_GO_manual_4x64graphite.dat" ...
    
  PSINC grid spacing along a1 set to   0.511215680000a0 from input file.
  PSINC grid spacing along a2 set to   0.531284090000a0 from input file.
  PSINC grid spacing along a3 set to   0.507050730000a0 from input file.
  Number of PPD points along a3 set to 1.  This is 
  the default value, it may have been provided also in the input file.
... done
 Writing xyz coordinates to file "3.756468_GO_manual_4x64graphite.xyz" ... done


--------------------------------------------------------------------------------
---------------------------------- INPUT FILE ----------------------------------
--------------------------------------------------------------------------------

task : singlepoint                                                              
do_properties : true                                                            
dx_format T                                                                     
edft T                                                                          
output_detail VERBOSE                                                           
write_xyz T                                                                     
xc_functional VDWDF                                                             
PSINC_SPACING 0.51121568 0.53128409 0.50705073                                  
paw T                                                                           
pdos_max_l = 2                                                                  
dos_smear  0.1 eV                                                               
popn_calculate T                                                                
PDOS_PSEUDOATOMIC T                                                             
PDOS_REDUCE_SWS F                                                               
PDOS_CONSTRUCT_BASIS F                                                          
PDOS_LOWDIN T                                                                   
PDOS_ORTH_ATOM_BLOCKS F                                                         
PDOS_LCAO_OPTIMIZE F                                                            
pdos_optados_output T                                                           
homo_plot 0                                                                     
lumo_plot 0                                                                     
homo_dens_plot -1                                                               
lumo_dens_plot -1                                                               
%BLOCK SPECIES                                                                  
C C 6 4 9.0                                                                     
%ENDBLOCK SPECIES                                                               
%BLOCK SPECIES_POT                                                              
C "~/pp/paw/c_pbe_abinit.paw"                                                   
%ENDBLOCK SPECIES_POT                                                           
%BLOCK SPECIES_ATOMIC_SET                                                       
C "SOLVE conf=2s2 2p2"                                                          
%ENDBLOCK SPECIES_ATOMIC_SET                                                    
%BLOCK LATTICE_CART                                                             
32.21  0.00  0.00                                                               
0.00 18.59  0.00                                                                
0.00  0.00 70.99                                                                
%ENDBLOCK LATTICE_CART                                                          
%BLOCK POSITIONS_ABS                                                            
C  0.00  0.00  3.55                                                             
C  0.00  0.00 17.75                                                             
C  0.00  0.00 31.94                                                             
C  0.00  0.00 46.14                                                             
C  0.00  0.00 60.34                                                             
C  0.00  4.65  3.55                                                             
C  0.00  4.65 17.75                                                             
C  0.00  4.65 31.94                                                             
C  0.00  4.65 46.14                                                             
C  0.00  4.65 60.34                                                             
C  4.03  2.32  3.55                                                             
C  4.03  2.32 17.75                                                             
C  4.03  2.32 31.94                                                             
C  4.03  2.32 46.14                                                             
C  4.03  2.32 60.34                                                             
C  8.05  0.00  3.55                                                             
C  8.05  0.00 17.75                                                             
C  8.05  0.00 31.94                                                             
C  8.05  0.00 46.14                                                             
C  8.05  0.00 60.34                                                             
C  0.00  9.30  3.55                                                             
C  0.00  9.30 17.75                                                             
C  0.00  9.30 31.94                                                             
C  0.00  9.30 46.14                                                             
C  0.00  9.30 60.34                                                             
C  4.03  6.97  3.55                                                             
C  4.03  6.97 17.75                                                             
C  4.03  6.97 31.94                                                             
C  4.03  6.97 46.14                                                             
C  4.03  6.97 60.34                                                             
C  8.05  4.65  3.55                                                             
C  8.05  4.65 17.75                                                             
C  8.05  4.65 31.94                                                             
C  8.05  4.65 46.14                                                             
C  8.05  4.65 60.34                                                             
C 12.08  2.32  3.55                                                             
C 12.08  2.32 17.75                                                             
C 12.08  2.32 31.94                                                             
C 12.08  2.32 46.14                                                             
C 12.08  2.32 60.34                                                             
C 16.10  0.00  3.55                                                             
C 16.10  0.00 17.75                                                             
C 16.10  0.00 31.94                                                             
C 16.10  0.00 46.14                                                             
C 16.10  0.00 60.34                                                             
C  0.00 13.95  3.55                                                             
C  0.00 13.95 17.75                                                             
C  0.00 13.95 31.94                                                             
C  0.00 13.95 46.14                                                             
C  0.00 13.95 60.34                                                             
C  4.03 11.62  3.55                                                             
C  4.03 11.62 17.75                                                             
C  4.03 11.62 31.94                                                             
C  4.03 11.62 46.14                                                             
C  4.03 11.62 60.34                                                             
C  8.05  9.30  3.55                                                             
C  8.05  9.30 17.75                                                             
C  8.05  9.30 31.94                                                             
C  8.05  9.30 46.14                                                             
C  8.05  9.30 60.34                                                             
C 12.08  6.97  3.55                                                             
C 12.08  6.97 17.75                                                             
C 12.08  6.97 31.94                                                             
C 12.08  6.97 46.14                                                             
C 12.08  6.97 60.34                                                             
C 16.10  4.65  3.55                                                             
C 16.10  4.65 17.75                                                             
C 16.10  4.65 31.94                                                             
C 16.10  4.65 46.14                                                             
C 16.10  4.65 60.34                                                             
C 20.13  2.32  3.55                                                             
C 20.13  2.32 17.75                                                             
C 20.13  2.32 31.94                                                             
C 20.13  2.32 46.14                                                             
C 20.13  2.32 60.34                                                             
C 24.16  0.00  3.55                                                             
C 24.16  0.00 17.75                                                             
C 24.16  0.00 31.94                                                             
C 24.16  0.00 46.14                                                             
C 24.16  0.00 60.34                                                             
C  4.03 16.27  3.55                                                             
C  4.03 16.27 17.75                                                             
C  4.03 16.27 31.94                                                             
C  4.03 16.27 46.14                                                             
C  4.03 16.27 60.34                                                             
C  8.05 13.95  3.55                                                             
C  8.05 13.95 17.75                                                             
C  8.05 13.95 31.94                                                             
C  8.05 13.95 46.14                                                             
C  8.05 13.95 60.34                                                             
C 12.08 11.62  3.55                                                             
C 12.08 11.62 17.75                                                             
C 12.08 11.62 31.94                                                             
C 12.08 11.62 46.14                                                             
C 12.08 11.62 60.34                                                             
C 16.10  9.30  3.55                                                             
C 16.10  9.30 17.75                                                             
C 16.10  9.30 31.94                                                             
C 16.10  9.30 46.14                                                             
C 16.10  9.30 60.34                                                             
C 20.13  6.97  3.55                                                             
C 20.13  6.97 17.75                                                             
C 20.13  6.97 31.94                                                             
C 20.13  6.97 46.14                                                             
C 20.13  6.97 60.34                                                             
C 24.16  4.65  3.55                                                             
C 24.16  4.65 17.75                                                             
C 24.16  4.65 31.94                                                             
C 24.16  4.65 46.14                                                             
C 24.16  4.65 60.34                                                             
C 28.18  2.32  3.55                                                             
C 28.18  2.32 17.75                                                             
C 28.18  2.32 31.94                                                             
C 28.18  2.32 46.14                                                             
C 28.18  2.32 60.34                                                             
C 12.08 16.27  3.55                                                             
C 12.08 16.27 17.75                                                             
C 12.08 16.27 31.94                                                             
C 12.08 16.27 46.14                                                             
C 12.08 16.27 60.34                                                             
C 16.10 13.95  3.55                                                             
C 16.10 13.95 17.75                                                             
C 16.10 13.95 31.94                                                             
C 16.10 13.95 46.14                                                             
C 16.10 13.95 60.34                                                             
C 20.13 11.62  3.55                                                             
C 20.13 11.62 17.75                                                             
C 20.13 11.62 31.94                                                             
C 20.13 11.62 46.14                                                             
C 20.13 11.62 60.34                                                             
C 24.16  9.30  3.55                                                             
C 24.16  9.30 17.75                                                             
C 24.16  9.30 31.94                                                             
C 24.16  9.30 46.14                                                             
C 24.16  9.30 60.34                                                             
C 28.18  6.97  3.55                                                             
C 28.18  6.97 17.75                                                             
C 28.18  6.97 31.94                                                             
C 28.18  6.97 46.14                                                             
C 28.18  6.97 60.34                                                             
C 20.13 16.27  3.55                                                             
C 20.13 16.27 17.75                                                             
C 20.13 16.27 31.94                                                             
C 20.13 16.27 46.14                                                             
C 20.13 16.27 60.34                                                             
C 24.16 13.95  3.55                                                             
C 24.16 13.95 17.75                                                             
C 24.16 13.95 31.94                                                             
C 24.16 13.95 46.14                                                             
C 24.16 13.95 60.34                                                             
C 28.18 11.62  3.55                                                             
C 28.18 11.62 17.75                                                             
C 28.18 11.62 31.94                                                             
C 28.18 11.62 46.14                                                             
C 28.18 11.62 60.34                                                             
C 28.18 16.27  3.55                                                             
C 28.18 16.27 17.75                                                             
C 28.18 16.27 31.94                                                             
C 28.18 16.27 46.14                                                             
C 28.18 16.27 60.34                                                             
C  0.00  0.00 10.65                                                             
C  0.00  0.00 24.85                                                             
C  0.00  0.00 39.04                                                             
C  0.00  0.00 53.24                                                             
C  0.00  0.00 67.44                                                             
C  0.00  4.65 10.65                                                             
C  0.00  4.65 24.85                                                             
C  0.00  4.65 39.04                                                             
C  0.00  4.65 53.24                                                             
C  0.00  4.65 67.44                                                             
C  4.03  2.32 10.65                                                             
C  4.03  2.32 24.85                                                             
C  4.03  2.32 39.04                                                             
C  4.03  2.32 53.24                                                             
C  4.03  2.32 67.44                                                             
C  8.05  0.00 10.65                                                             
C  8.05  0.00 24.85                                                             
C  8.05  0.00 39.04                                                             
C  8.05  0.00 53.24                                                             
C  8.05  0.00 67.44                                                             
C  0.00  9.30 10.65                                                             
C  0.00  9.30 24.85                                                             
C  0.00  9.30 39.04                                                             
C  0.00  9.30 53.24                                                             
C  0.00  9.30 67.44                                                             
C  4.03  6.97 10.65                                                             
C  4.03  6.97 24.85                                                             
C  4.03  6.97 39.04                                                             
C  4.03  6.97 53.24                                                             
C  4.03  6.97 67.44                                                             
C  8.05  4.65 10.65                                                             
C  8.05  4.65 24.85                                                             
C  8.05  4.65 39.04                                                             
C  8.05  4.65 53.24                                                             
C  8.05  4.65 67.44                                                             
C 12.08  2.32 10.65                                                             
C 12.08  2.32 24.85                                                             
C 12.08  2.32 39.04                                                             
C 12.08  2.32 53.24                                                             
C 12.08  2.32 67.44                                                             
C 16.10  0.00 10.65                                                             
C 16.10  0.00 24.85                                                             
C 16.10  0.00 39.04                                                             
C 16.10  0.00 53.24                                                             
C 16.10  0.00 67.44                                                             
C  0.00 13.95 10.65                                                             
C  0.00 13.95 24.85                                                             
C  0.00 13.95 39.04                                                             
C  0.00 13.95 53.24                                                             
C  0.00 13.95 67.44                                                             
C  4.03 11.62 10.65                                                             
C  4.03 11.62 24.85                                                             
C  4.03 11.62 39.04                                                             
C  4.03 11.62 53.24                                                             
C  4.03 11.62 67.44                                                             
C  8.05  9.30 10.65                                                             
C  8.05  9.30 24.85                                                             
C  8.05  9.30 39.04                                                             
C  8.05  9.30 53.24                                                             
C  8.05  9.30 67.44                                                             
C 12.08  6.97 10.65                                                             
C 12.08  6.97 24.85                                                             
C 12.08  6.97 39.04                                                             
C 12.08  6.97 53.24                                                             
C 12.08  6.97 67.44                                                             
C 16.10  4.65 10.65                                                             
C 16.10  4.65 24.85                                                             
C 16.10  4.65 39.04                                                             
C 16.10  4.65 53.24                                                             
C 16.10  4.65 67.44                                                             
C 20.13  2.32 10.65                                                             
C 20.13  2.32 24.85                                                             
C 20.13  2.32 39.04                                                             
C 20.13  2.32 53.24                                                             
C 20.13  2.32 67.44                                                             
C 24.16  0.00 10.65                                                             
C 24.16  0.00 24.85                                                             
C 24.16  0.00 39.04                                                             
C 24.16  0.00 53.24                                                             
C 24.16  0.00 67.44                                                             
C  4.03 16.27 10.65                                                             
C  4.03 16.27 24.85                                                             
C  4.03 16.27 39.04                                                             
C  4.03 16.27 53.24                                                             
C  4.03 16.27 67.44                                                             
C  8.05 13.95 10.65                                                             
C  8.05 13.95 24.85                                                             
C  8.05 13.95 39.04                                                             
C  8.05 13.95 53.24                                                             
C  8.05 13.95 67.44                                                             
C 12.08 11.62 10.65                                                             
C 12.08 11.62 24.85                                                             
C 12.08 11.62 39.04                                                             
C 12.08 11.62 53.24                                                             
C 12.08 11.62 67.44                                                             
C 16.10  9.30 10.65                                                             
C 16.10  9.30 24.85                                                             
C 16.10  9.30 39.04                                                             
C 16.10  9.30 53.24                                                             
C 16.10  9.30 67.44                                                             
C 20.13  6.97 10.65                                                             
C 20.13  6.97 24.85                                                             
C 20.13  6.97 39.04                                                             
C 20.13  6.97 53.24                                                             
C 20.13  6.97 67.44                                                             
C 24.16  4.65 10.65                                                             
C 24.16  4.65 24.85                                                             
C 24.16  4.65 39.04                                                             
C 24.16  4.65 53.24                                                             
C 24.16  4.65 67.44                                                             
C 28.18  2.32 10.65                                                             
C 28.18  2.32 24.85                                                             
C 28.18  2.32 39.04                                                             
C 28.18  2.32 53.24                                                             
C 28.18  2.32 67.44                                                             
C 12.08 16.27 10.65                                                             
C 12.08 16.27 24.85                                                             
C 12.08 16.27 39.04                                                             
C 12.08 16.27 53.24                                                             
C 12.08 16.27 67.44                                                             
C 16.10 13.95 10.65                                                             
C 16.10 13.95 24.85                                                             
C 16.10 13.95 39.04                                                             
C 16.10 13.95 53.24                                                             
C 16.10 13.95 67.44                                                             
C 20.13 11.62 10.65                                                             
C 20.13 11.62 24.85                                                             
C 20.13 11.62 39.04                                                             
C 20.13 11.62 53.24                                                             
C 20.13 11.62 67.44                                                             
C 24.16  9.30 10.65                                                             
C 24.16  9.30 24.85                                                             
C 24.16  9.30 39.04                                                             
C 24.16  9.30 53.24                                                             
C 24.16  9.30 67.44                                                             
C 28.18  6.97 10.65                                                             
C 28.18  6.97 24.85                                                             
C 28.18  6.97 39.04                                                             
C 28.18  6.97 53.24                                                             
C 28.18  6.97 67.44                                                             
C 20.13 16.27 10.65                                                             
C 20.13 16.27 24.85                                                             
C 20.13 16.27 39.04                                                             
C 20.13 16.27 53.24                                                             
C 20.13 16.27 67.44                                                             
C 24.16 13.95 10.65                                                             
C 24.16 13.95 24.85                                                             
C 24.16 13.95 39.04                                                             
C 24.16 13.95 53.24                                                             
C 24.16 13.95 67.44                                                             
C 28.18 11.62 10.65                                                             
C 28.18 11.62 24.85                                                             
C 28.18 11.62 39.04                                                             
C 28.18 11.62 53.24                                                             
C 28.18 11.62 67.44                                                             
C 28.18 16.27 10.65                                                             
C 28.18 16.27 24.85                                                             
C 28.18 16.27 39.04                                                             
C 28.18 16.27 53.24                                                             
C 28.18 16.27 67.44                                                             
C  1.34  2.32  3.55                                                             
C  1.34  2.32 17.75                                                             
C  1.34  2.32 31.94                                                             
C  1.34  2.32 46.14                                                             
C  1.34  2.32 60.34                                                             
C  5.37  0.00  3.55                                                             
C  5.37  0.00 17.75                                                             
C  5.37  0.00 31.94                                                             
C  5.37  0.00 46.14                                                             
C  5.37  0.00 60.34                                                             
C  1.34  6.97  3.55                                                             
C  1.34  6.97 17.75                                                             
C  1.34  6.97 31.94                                                             
C  1.34  6.97 46.14                                                             
C  1.34  6.97 60.34                                                             
C  5.37  4.65  3.55                                                             
C  5.37  4.65 17.75                                                             
C  5.37  4.65 31.94                                                             
C  5.37  4.65 46.14                                                             
C  5.37  4.65 60.34                                                             
C  9.39  2.32  3.55                                                             
C  9.39  2.32 17.75                                                             
C  9.39  2.32 31.94                                                             
C  9.39  2.32 46.14                                                             
C  9.39  2.32 60.34                                                             
C 13.42  0.00  3.55                                                             
C 13.42  0.00 17.75                                                             
C 13.42  0.00 31.94                                                             
C 13.42  0.00 46.14                                                             
C 13.42  0.00 60.34                                                             
C  1.34 11.62  3.55                                                             
C  1.34 11.62 17.75                                                             
C  1.34 11.62 31.94                                                             
C  1.34 11.62 46.14                                                             
C  1.34 11.62 60.34                                                             
C  5.37  9.30  3.55                                                             
C  5.37  9.30 17.75                                                             
C  5.37  9.30 31.94                                                             
C  5.37  9.30 46.14                                                             
C  5.37  9.30 60.34                                                             
C  9.39  6.97  3.55                                                             
C  9.39  6.97 17.75                                                             
C  9.39  6.97 31.94                                                             
C  9.39  6.97 46.14                                                             
C  9.39  6.97 60.34                                                             
C 13.42  4.65  3.55                                                             
C 13.42  4.65 17.75                                                             
C 13.42  4.65 31.94                                                             
C 13.42  4.65 46.14                                                             
C 13.42  4.65 60.34                                                             
C 17.45  2.32  3.55                                                             
C 17.45  2.32 17.75                                                             
C 17.45  2.32 31.94                                                             
C 17.45  2.32 46.14                                                             
C 17.45  2.32 60.34                                                             
C 21.47  0.00  3.55                                                             
C 21.47  0.00 17.75                                                             
C 21.47  0.00 31.94                                                             
C 21.47  0.00 46.14                                                             
C 21.47  0.00 60.34                                                             
C  1.34 16.27  3.55                                                             
C  1.34 16.27 17.75                                                             
C  1.34 16.27 31.94                                                             
C  1.34 16.27 46.14                                                             
C  1.34 16.27 60.34                                                             
C  5.37 13.95  3.55                                                             
C  5.37 13.95 17.75                                                             
C  5.37 13.95 31.94                                                             
C  5.37 13.95 46.14                                                             
C  5.37 13.95 60.34                                                             
C  9.39 11.62  3.55                                                             
C  9.39 11.62 17.75                                                             
C  9.39 11.62 31.94                                                             
C  9.39 11.62 46.14                                                             
C  9.39 11.62 60.34                                                             
C 13.42  9.30  3.55                                                             
C 13.42  9.30 17.75                                                             
C 13.42  9.30 31.94                                                             
C 13.42  9.30 46.14                                                             
C 13.42  9.30 60.34                                                             
C 17.45  6.97  3.55                                                             
C 17.45  6.97 17.75                                                             
C 17.45  6.97 31.94                                                             
C 17.45  6.97 46.14                                                             
C 17.45  6.97 60.34                                                             
C 21.47  4.65  3.55                                                             
C 21.47  4.65 17.75                                                             
C 21.47  4.65 31.94                                                             
C 21.47  4.65 46.14                                                             
C 21.47  4.65 60.34                                                             
C 25.50  2.32  3.55                                                             
C 25.50  2.32 17.75                                                             
C 25.50  2.32 31.94                                                             
C 25.50  2.32 46.14                                                             
C 25.50  2.32 60.34                                                             
C 29.52  0.00  3.55                                                             
C 29.52  0.00 17.75                                                             
C 29.52  0.00 31.94                                                             
C 29.52  0.00 46.14                                                             
C 29.52  0.00 60.34                                                             
C  9.39 16.27  3.55                                                             
C  9.39 16.27 17.75                                                             
C  9.39 16.27 31.94                                                             
C  9.39 16.27 46.14                                                             
C  9.39 16.27 60.34                                                             
C 13.42 13.95  3.55                                                             
C 13.42 13.95 17.75                                                             
C 13.42 13.95 31.94                                                             
C 13.42 13.95 46.14                                                             
C 13.42 13.95 60.34                                                             
C 17.45 11.62  3.55                                                             
C 17.45 11.62 17.75                                                             
C 17.45 11.62 31.94                                                             
C 17.45 11.62 46.14                                                             
C 17.45 11.62 60.34                                                             
C 21.47  9.30  3.55                                                             
C 21.47  9.30 17.75                                                             
C 21.47  9.30 31.94                                                             
C 21.47  9.30 46.14                                                             
C 21.47  9.30 60.34                                                             
C 25.50  6.97  3.55                                                             
C 25.50  6.97 17.75                                                             
C 25.50  6.97 31.94                                                             
C 25.50  6.97 46.14                                                             
C 25.50  6.97 60.34                                                             
C 29.52  4.65  3.55                                                             
C 29.52  4.65 17.75                                                             
C 29.52  4.65 31.94                                                             
C 29.52  4.65 46.14                                                             
C 29.52  4.65 60.34                                                             
C 17.45 16.27  3.55                                                             
C 17.45 16.27 17.75                                                             
C 17.45 16.27 31.94                                                             
C 17.45 16.27 46.14                                                             
C 17.45 16.27 60.34                                                             
C 21.47 13.95  3.55                                                             
C 21.47 13.95 17.75                                                             
C 21.47 13.95 31.94                                                             
C 21.47 13.95 46.14                                                             
C 21.47 13.95 60.34                                                             
C 25.50 11.62  3.55                                                             
C 25.50 11.62 17.75                                                             
C 25.50 11.62 31.94                                                             
C 25.50 11.62 46.14                                                             
C 25.50 11.62 60.34                                                             
C 29.52  9.30  3.55                                                             
C 29.52  9.30 17.75                                                             
C 29.52  9.30 31.94                                                             
C 29.52  9.30 46.14                                                             
C 29.52  9.30 60.34                                                             
C 25.50 16.27  3.55                                                             
C 25.50 16.27 17.75                                                             
C 25.50 16.27 31.94                                                             
C 25.50 16.27 46.14                                                             
C 25.50 16.27 60.34                                                             
C 29.52 13.95  3.55                                                             
C 29.52 13.95 17.75                                                             
C 29.52 13.95 31.94                                                             
C 29.52 13.95 46.14                                                             
C 29.52 13.95 60.34                                                             
C  2.68  0.00 10.65                                                             
C  2.68  0.00 24.85                                                             
C  2.68  0.00 39.04                                                             
C  2.68  0.00 53.24                                                             
C  2.68  0.00 67.44                                                             
C  2.68  4.65 10.65                                                             
C  2.68  4.65 24.85                                                             
C  2.68  4.65 39.04                                                             
C  2.68  4.65 53.24                                                             
C  2.68  4.65 67.44                                                             
C  6.71  2.32 10.65                                                             
C  6.71  2.32 24.85                                                             
C  6.71  2.32 39.04                                                             
C  6.71  2.32 53.24                                                             
C  6.71  2.32 67.44                                                             
C 10.74  0.00 10.65                                                             
C 10.74  0.00 24.85                                                             
C 10.74  0.00 39.04                                                             
C 10.74  0.00 53.24                                                             
C 10.74  0.00 67.44                                                             
C  2.68  9.30 10.65                                                             
C  2.68  9.30 24.85                                                             
C  2.68  9.30 39.04                                                             
C  2.68  9.30 53.24                                                             
C  2.68  9.30 67.44                                                             
C  6.71  6.97 10.65                                                             
C  6.71  6.97 24.85                                                             
C  6.71  6.97 39.04                                                             
C  6.71  6.97 53.24                                                             
C  6.71  6.97 67.44                                                             
C 10.74  4.65 10.65                                                             
C 10.74  4.65 24.85                                                             
C 10.74  4.65 39.04                                                             
C 10.74  4.65 53.24                                                             
C 10.74  4.65 67.44                                                             
C 14.76  2.32 10.65                                                             
C 14.76  2.32 24.85                                                             
C 14.76  2.32 39.04                                                             
C 14.76  2.32 53.24                                                             
C 14.76  2.32 67.44                                                             
C 18.79  0.00 10.65                                                             
C 18.79  0.00 24.85                                                             
C 18.79  0.00 39.04                                                             
C 18.79  0.00 53.24                                                             
C 18.79  0.00 67.44                                                             
C  2.68 13.95 10.65                                                             
C  2.68 13.95 24.85                                                             
C  2.68 13.95 39.04                                                             
C  2.68 13.95 53.24                                                             
C  2.68 13.95 67.44                                                             
C  6.71 11.62 10.65                                                             
C  6.71 11.62 24.85                                                             
C  6.71 11.62 39.04                                                             
C  6.71 11.62 53.24                                                             
C  6.71 11.62 67.44                                                             
C 10.74  9.30 10.65                                                             
C 10.74  9.30 24.85                                                             
C 10.74  9.30 39.04                                                             
C 10.74  9.30 53.24                                                             
C 10.74  9.30 67.44                                                             
C 14.76  6.97 10.65                                                             
C 14.76  6.97 24.85                                                             
C 14.76  6.97 39.04                                                             
C 14.76  6.97 53.24                                                             
C 14.76  6.97 67.44                                                             
C 18.79  4.65 10.65                                                             
C 18.79  4.65 24.85                                                             
C 18.79  4.65 39.04                                                             
C 18.79  4.65 53.24                                                             
C 18.79  4.65 67.44                                                             
C 22.81  2.32 10.65                                                             
C 22.81  2.32 24.85                                                             
C 22.81  2.32 39.04                                                             
C 22.81  2.32 53.24                                                             
C 22.81  2.32 67.44                                                             
C 26.84  0.00 10.65                                                             
C 26.84  0.00 24.85                                                             
C 26.84  0.00 39.04                                                             
C 26.84  0.00 53.24                                                             
C 26.84  0.00 67.44                                                             
C  6.71 16.27 10.65                                                             
C  6.71 16.27 24.85                                                             
C  6.71 16.27 39.04                                                             
C  6.71 16.27 53.24                                                             
C  6.71 16.27 67.44                                                             
C 10.74 13.95 10.65                                                             
C 10.74 13.95 24.85                                                             
C 10.74 13.95 39.04                                                             
C 10.74 13.95 53.24                                                             
C 10.74 13.95 67.44                                                             
C 14.76 11.62 10.65                                                             
C 14.76 11.62 24.85                                                             
C 14.76 11.62 39.04                                                             
C 14.76 11.62 53.24                                                             
C 14.76 11.62 67.44                                                             
C 18.79  9.30 10.65                                                             
C 18.79  9.30 24.85                                                             
C 18.79  9.30 39.04                                                             
C 18.79  9.30 53.24                                                             
C 18.79  9.30 67.44                                                             
C 22.81  6.97 10.65                                                             
C 22.81  6.97 24.85                                                             
C 22.81  6.97 39.04                                                             
C 22.81  6.97 53.24                                                             
C 22.81  6.97 67.44                                                             
C 26.84  4.65 10.65                                                             
C 26.84  4.65 24.85                                                             
C 26.84  4.65 39.04                                                             
C 26.84  4.65 53.24                                                             
C 26.84  4.65 67.44                                                             
C 30.86  2.32 10.65                                                             
C 30.86  2.32 24.85                                                             
C 30.86  2.32 39.04                                                             
C 30.86  2.32 53.24                                                             
C 30.86  2.32 67.44                                                             
C 14.76 16.27 10.65                                                             
C 14.76 16.27 24.85                                                             
C 14.76 16.27 39.04                                                             
C 14.76 16.27 53.24                                                             
C 14.76 16.27 67.44                                                             
C 18.79 13.95 10.65                                                             
C 18.79 13.95 24.85                                                             
C 18.79 13.95 39.04                                                             
C 18.79 13.95 53.24                                                             
C 18.79 13.95 67.44                                                             
C 22.81 11.62 10.65                                                             
C 22.81 11.62 24.85                                                             
C 22.81 11.62 39.04                                                             
C 22.81 11.62 53.24                                                             
C 22.81 11.62 67.44                                                             
C 26.84  9.30 10.65                                                             
C 26.84  9.30 24.85                                                             
C 26.84  9.30 39.04                                                             
C 26.84  9.30 53.24                                                             
C 26.84  9.30 67.44                                                             
C 30.86  6.97 10.65                                                             
C 30.86  6.97 24.85                                                             
C 30.86  6.97 39.04                                                             
C 30.86  6.97 53.24                                                             
C 30.86  6.97 67.44                                                             
C 22.81 16.27 10.65                                                             
C 22.81 16.27 24.85                                                             
C 22.81 16.27 39.04                                                             
C 22.81 16.27 53.24                                                             
C 22.81 16.27 67.44                                                             
C 26.84 13.95 10.65                                                             
C 26.84 13.95 24.85                                                             
C 26.84 13.95 39.04                                                             
C 26.84 13.95 53.24                                                             
C 26.84 13.95 67.44                                                             
C 30.86 11.62 10.65                                                             
C 30.86 11.62 24.85                                                             
C 30.86 11.62 39.04                                                             
C 30.86 11.62 53.24                                                             
C 30.86 11.62 67.44                                                             
C 30.86 16.27 10.65                                                             
C 30.86 16.27 24.85                                                             
C 30.86 16.27 39.04                                                             
C 30.86 16.27 53.24                                                             
C 30.86 16.27 67.44                                                             
%ENDBLOCK POSITIONS_ABS                                                         

--------------------------------------------------------------------------------
-------------------------------- END INPUT FILE --------------------------------
--------------------------------------------------------------------------------


 
<<<<<<<<<<<<<<<<<<<<<<<<<<<<<<<<< Full system >>>>>>>>>>>>>>>>>>>>>>>>>>>>>>>>>>
<<<<<<<<<<<<<<<<<<<<<<<<<<< PAW Dataset information >>>>>>>>>>>>>>>>>>>>>>>>>>>
File: ~/pp/paw/c_pbe_abinit.paw; rc = 1.25 bohr; shape type =  3; rshape = 1.25 bohr;
  Atomic number:  6;  ionic charge:  4.000000
    Partial Wave 1: l = 0
    Partial Wave 2: l = 0
    Partial Wave 3: l = 1
    Partial Wave 4: l = 1
  Core charge supplied for Nonlinear Core Corrections
<<<<<<<<<<<<<<<<<<<<<<<<<<<<<<<<<<<<<<< >>>>>>>>>>>>>>>>>>>>>>>>>>>>>>>>>>>>>>>

-------------------------- Atom counting information ---------------------------
Symbol    Natoms    Nngwfs    Nprojs
  C        640      2560      5120
.......   ......    ......    ......
Totals:    640      2560      5120
--------------------------------------------------------------------------------

=============================== PSINC grid sizes ===============================
                      Simulation cell:   63 x  35 x 140
                              FFT-box:   63 x  35 x 117
                                  PPD:    7 x   5 x   1
Grid space d1=  0.511269841270a0 (KE cutoff=  29.06054Eh = 790.77748eV)
Grid space d2=  0.531142857143a0 (KE cutoff=  26.92659Eh = 732.70972eV)
Grid space d3=  0.507071428571a0 (KE cutoff=  29.54376Eh = 803.92653eV)
================================================================================
  
WARNING in cell_grid_distribute:
Average of less than one 23-slab per node, so workload cannot be
equally balanced between nodes.

********************* Fourier parallelisation information **********************
       Coarse grid (whole simulation cell) dimensions:     63    35   140
          Real-space ('12') slabs/node (min max mean):      3     4     3
         Recip-space ('23') slabs/node (min max mean):      0     1     0
********************************************************************************

********************* Fourier parallelisation information **********************
       Double grid (whole simulation cell) dimensions:    126    70   280
          Real-space ('12') slabs/node (min max mean):      7     7     7
         Recip-space ('23') slabs/node (min max mean):      1     2     1
********************************************************************************

Atom SCF Calculation for C  : Z (AE atom) =   6 : Z (PS atom) =   4
Config String: 2s2 2p2
Orbitals (num,occ):  2     2.00 2.00
Orbitals   (num,l):  2        0    1
Real-space Grid (nr,dr,rmax): 1293    0.0069659443    9.0000000000
Spherical Bessel Basis (nsws,lmax,cutoff):   37    2  161.4736382572
Confining potential (l,width,scale):  0    3.0000000000  100.0000000000
Confining potential (l,width,scale):  1    3.0000000000  100.0000000000
  1         -5.4966243538   -1.3415066196    4.5135257941   -1.6613421942
  2         -5.4660395227   -1.4172174419    4.4326892861   -1.6365362708
  3         -5.4759582348   -1.4337557188    4.4144498970   -1.6324663609
  4         -5.4843804720   -1.4365219414    4.4114201180   -1.6322033818
  5         -5.4882713954   -1.4381734139    4.4096331461   -1.6320227940
  6         -5.4902132675   -1.4390636620    4.4086785626   -1.6319270645
  7         -5.4912093711   -1.4395303631    4.4081823351   -1.6318789226
  8         -5.4917264140   -1.4397726342    4.4079268833   -1.6318551036
  9         -5.4919964206   -1.4398979410    4.4077958777   -1.6318434025
 10         -5.4921379132   -1.4399626875    4.4077287721   -1.6318376788
 11         -5.4922122245   -1.4399961532    4.4076943935   -1.6318348878
 12         -5.4922513136   -1.4400134684    4.4076767658   -1.6318335308
 13         -5.4922719001   -1.4400224400    4.4076677156   -1.6318328728
 14         -5.4922827535   -1.4400270959    4.4076630621   -1.6318325547
 15         -5.4922884809   -1.4400295164    4.4076606653   -1.6318324014
 16         -5.4922915059   -1.4400307770    4.4076594286   -1.6318323279
 17         -5.4922931051   -1.4400314347    4.4076587894   -1.6318322927
 18         -5.4922939512   -1.4400317785    4.4076584583   -1.6318322760
 19         -5.4922943993   -1.4400319585    4.4076582865   -1.6318322681
 20         -5.4922946368   -1.4400320529    4.4076581972   -1.6318322644
 21         -5.4922947627   -1.4400321025    4.4076581507   -1.6318322627
 22         -5.4922948296   -1.4400321287    4.4076581265   -1.6318322619
Atom SCF converged after  22 iterations to a total energy of     -5.49229483

Determining parallel strategy ...
... using space-filling curve
... NGWF load balancing: max     64;  min     64;  average     64
... Projector load balancing: max    128;  min    128;  average    128
... done
Calculating Ewald energy ...
              Ewald: real-space energy =    9484.647111
        Ewald: reciprocal-space energy =       0.376905
         Ewald: (sum_charge)**2 Energy =   10895.174240
         Ewald: (sum_charge**2) Energy =     861.339153
                          Ewald Energy =   -2271.489376
Basis initialisation ...... NGWF spheres initialised
... Projector spheres initialised
... NGWF tight boxes initialised
... Projector tight boxes initialised
... Tight-boxes gathered
... NGWF basis size (local,global):     691956  27874240
... PAW projector initialisation
... done

============================= Charge Augmentation ==============================
                           Aug box size:   11 x  11 x  11
================================================================================

========================== Sparse matrix information ===========================
                        Overlap matrix filling:  40.94%
                        Density kernel filling: 100.00%
              NGWF-Proj overlap matrix filling:  12.19%
                    Aug Overlap matrix filling:  47.03%
                    Hamiltonian matrix filling:  47.03%
                  NGWF diagonal matrix filling:   0.16%
                             KS matrix filling: 100.00% 
                           KSKS matrix filling: 100.00% 
================================================================================

Sparse matrix initialisation ... done
NGWF initialisation ...... done
============ Calculation of NGWF S^-1 using Hotelling algorithm ================ 
         Iteration  |  Frobenius norm and Maximum abs value    (of I-S*S_n^-1)   
               1       0.48956656E+02     0.97458799E+00
               2       0.47662658E+02     0.95106502E+00
               3       0.45747433E+02     0.90880068E+00
               4       0.43297587E+02     0.83889672E+00
               5       0.40383054E+02     0.73607525E+00
               6       0.37021721E+02     0.67381726E+00
               7       0.33554986E+02     0.62670684E+00
               8       0.30232315E+02     0.58654153E+00
               9       0.26602580E+02     0.54047849E+00
              10       0.21960047E+02     0.46717219E+00
              11       0.15937378E+02     0.35244330E+00
              12       0.91433328E+01     0.20586209E+00
              13       0.34646551E+01     0.75474621E-01
              14       0.59898262E+00     0.11792368E-01
              15       0.21767282E-01     0.35954736E-03
              16       0.38970164E-04     0.45191000E-06
              17       0.19147359E-09     0.13262724E-11
              18       0.68731901E-13     0.31086245E-14
================================================================================
Calculating core density ...
================================= Core Density =================================
               Core den box size:   21 x  21 x  21
================================================================================
 ... done
Up spin density kernel initialisation ...... done

Writing density kernel to file "3.756468_GO_manual_4x64graphite.dkn" ... done

>>> Optimising kernel for current NGWFs:

--------------------------- Ensemble-DFT optimisation --------------------------
Running ScaLAPACK on   40 processor(s).

--------------------------------------------------------------------------------
  Iter                              Commutator    Free_energy(A=E-TS)     DeltaA
#    0                          0.000039690539   -3654.09801839051624  -3.65E+03

Step                       =       0.381966011250
Energy                     =   -3654.097992202282
Entropy (-TS)              =      -0.000026187929
Free energy (A=E-TS)       =   -3654.098018390516
Est. 0K Energy 0.5*(E+A)   =   -3654.098005296399
Residual Non-orthogonality =       0.000000000000
Residual N_electrons       =      -0.000000000305

Spin          Integrated_Ne            Fermi_level     Delta_Fermi_level
   1      2560.000000001914         0.159408318655              1.59E-01

                           Spin 1          
     Orb      H-eigenvalues     Occupancies
       1 |    -0.5646723189    1.0000000000 | 
                          ------
    1276 |     0.1241011477    0.9999856123 | 
    1277 |     0.1247226614    0.9999824925 | 
    1278 |     0.1247292120    0.9999824563 | 
    1279 |     0.1247650048    0.9999822569 | 
    1280 |     0.1253936833    0.9999783606 | 
                 - Gap at zero temperature -
    1281 |     0.1956453132    0.0000107270 | 
    1282 |     0.1956558774    0.0000106912 | 
    1283 |     0.1956580959    0.0000106838 | 
    1284 |     0.1958154654    0.0000101658 | 
    1285 |     0.1958186263    0.0000101557 | 
                          ------
    2560 |     0.9935367413    0.0000000000 | 

                       |  Abs_value |  Threshold | Converged
     Delta_Free_energy |   3.65E+03 |   1.00E-06 |        No
     Delta_Energy      |   3.65E+03 |   1.00E-04 |        No
     Delta_Entropy     |   2.62E-05 |   1.00E-04 |       Yes
     Commutator        |   3.97E-05 |   1.00E-05 |        No
     Delta_Fermi_level |   1.59E-01 |   1.00E-03 |        No

  Line search of the free energy minimum:
  Step_type        Step             Free_energy   Predicted_free_energy
.   Initial    0.000000    -3654.09801839051624
.    Trial1    0.381966    -3654.09972091972713
.    Trial2    0.618034    -3654.10013320391681
. Quadratic    0.699087    -3654.10016268718391    -3654.10016201910821

--------------------------------------------------------------------------------
  Iter                              Commutator    Free_energy(A=E-TS)     DeltaA
#    1                          0.000020986503   -3654.10016268718391  -2.14E-03

Step                       =       0.699086589739
Energy                     =   -3654.100137029035
Entropy (-TS)              =      -0.000025658352
Free energy (A=E-TS)       =   -3654.100162687184
Est. 0K Energy 0.5*(E+A)   =   -3654.100149858109
Residual Non-orthogonality =       0.000000000000
Residual N_electrons       =       0.000000000203

Spin          Integrated_Ne            Fermi_level     Delta_Fermi_level
   1      2559.999999998719         0.158137818893             -1.27E-03

                           Spin 1          
     Orb      H-eigenvalues     Occupancies
       1 |    -0.5684326683    1.0000000000 | 
                          ------
    1276 |     0.1228450875    0.9999855466 | 
    1277 |     0.1232856073    0.9999833895 | 
    1278 |     0.1232942580    0.9999833441 | 
    1279 |     0.1235035333    0.9999822062 | 
    1280 |     0.1239529818    0.9999794929 | 
                 - Gap at zero temperature -
    1281 |     0.1943461145    0.0000108246 | 
    1282 |     0.1943789176    0.0000107131 | 
    1283 |     0.1943841218    0.0000106955 | 
    1284 |     0.1945356096    0.0000101959 | 
    1285 |     0.1945480809    0.0000101558 | 
                          ------
    2560 |     0.9908175432    0.0000000000 | 

                       |  Abs_value |  Threshold | Converged
     Delta_Free_energy |   2.14E-03 |   1.00E-06 |        No
     Delta_Energy      |   2.14E-03 |   1.00E-04 |        No
     Delta_Entropy     |   5.30E-07 |   1.00E-04 |       Yes
     Commutator        |   2.10E-05 |   1.00E-05 |        No
     Delta_Fermi_level |   1.27E-03 |   1.00E-03 |        No

  Line search of the free energy minimum:
  Step_type        Step             Free_energy   Predicted_free_energy
.   Initial    0.000000    -3654.10016268718391
.    Trial1    0.699087    -3654.09904092329634
.    Trial2    0.267027    -3654.10057167676996
. Quadratic    0.239015    -3654.10057744010328    -3654.10057737263651

--------------------------------------------------------------------------------
  Iter                              Commutator    Free_energy(A=E-TS)     DeltaA
#    2                          0.000009689040   -3654.10057744010328  -4.15E-04

Step                       =       0.239015194154
Energy                     =   -3654.100551846454
Entropy (-TS)              =      -0.000025593535
Free energy (A=E-TS)       =   -3654.100577440103
Est. 0K Energy 0.5*(E+A)   =   -3654.100564643279
Residual Non-orthogonality =       0.000000000000
Residual N_electrons       =      -0.000000000114

Spin          Integrated_Ne            Fermi_level     Delta_Fermi_level
   1      2560.000000000722         0.158014345448             -1.23E-04

                           Spin 1          
     Orb      H-eigenvalues     Occupancies
       1 |    -0.5688169327    1.0000000000 | 
                          ------
    1276 |     0.1226750660    0.9999857574 | 
    1277 |     0.1231823026    0.9999832834 | 
    1278 |     0.1231903625    0.9999832408 | 
    1279 |     0.1233327254    0.9999824702 | 
    1280 |     0.1238483897    0.9999793703 | 
                 - Gap at zero temperature -
    1281 |     0.1942579403    0.0000107046 | 
    1282 |     0.1942898263    0.0000105974 | 
    1283 |     0.1942954542    0.0000105786 | 
    1284 |     0.1944500272    0.0000100746 | 
    1285 |     0.1944622311    0.0000100359 | 
                          ------
    2560 |     0.9905356315    0.0000000000 | 

                       |  Abs_value |  Threshold | Converged
     Delta_Free_energy |   4.15E-04 |   1.00E-06 |        No
     Delta_Energy      |   4.15E-04 |   1.00E-04 |        No
     Delta_Entropy     |   6.48E-08 |   1.00E-04 |       Yes
     Commutator        |   9.69E-06 |   1.00E-05 |       Yes
     Delta_Fermi_level |   1.23E-04 |   1.00E-03 |       Yes

  Line search of the free energy minimum:
  Step_type        Step             Free_energy   Predicted_free_energy
.   Initial    0.000000    -3654.10057744010328
.    Trial1    0.239015    -3654.10065348151875
.    Trial2    0.529686    -3654.10066653656895
. Quadratic    0.427885    -3654.10067187330014    -3654.10067188235189

--------------------------------------------------------------------------------
  Iter                              Commutator    Free_energy(A=E-TS)     DeltaA
#    3                          0.000006337152   -3654.10067187330014  -9.44E-05

Step                       =       0.427885086820
Energy                     =   -3654.100646370597
Entropy (-TS)              =      -0.000025502641
Free energy (A=E-TS)       =   -3654.100671873300
Est. 0K Energy 0.5*(E+A)   =   -3654.100659121948
Residual Non-orthogonality =       0.000000000000
Residual N_electrons       =      -0.000000000063

Spin          Integrated_Ne            Fermi_level     Delta_Fermi_level
   1      2560.000000000397         0.157844189099             -1.70E-04

                           Spin 1          
     Orb      H-eigenvalues     Occupancies
       1 |    -0.5693301558    1.0000000000 | 
                          ------
    1276 |     0.1224700279    0.9999859135 | 
    1277 |     0.1230149412    0.9999832686 | 
    1278 |     0.1230223506    0.9999832294 | 
    1279 |     0.1231269429    0.9999826663 | 
    1280 |     0.1236796843    0.9999793608 | 
                 - Gap at zero temperature -
    1281 |     0.1941145856    0.0000106144 | 
    1282 |     0.1941455607    0.0000105111 | 
    1283 |     0.1941515140    0.0000104914 | 
    1284 |     0.1943089106    0.0000099827 | 
    1285 |     0.1943208176    0.0000099452 | 
                          ------
    2560 |     0.9901769074    0.0000000000 | 

                       |  Abs_value |  Threshold | Converged
     Delta_Free_energy |   9.44E-05 |   1.00E-06 |        No
     Delta_Energy      |   9.45E-05 |   1.00E-04 |       Yes
     Delta_Entropy     |   9.09E-08 |   1.00E-04 |       Yes
     Commutator        |   6.34E-06 |   1.00E-05 |       Yes
     Delta_Fermi_level |   1.70E-04 |   1.00E-03 |       Yes

  Line search of the free energy minimum:
  Step_type        Step             Free_energy   Predicted_free_energy
.   Initial    0.000000    -3654.10067187330014
.    Trial1    0.427885    -3654.10069236212257
.    Trial2    0.646414    -3654.10062973225558
. Quadratic    0.260212    -3654.10070692065301    -3654.10070690959765

--------------------------------------------------------------------------------
  Iter                              Commutator    Free_energy(A=E-TS)     DeltaA
#    4                          0.000003927178   -3654.10070692065301  -3.50E-05

Step                       =       0.260212312335
Energy                     =   -3654.100681450863
[...]
 C   160 -- C   385       -0.10      5.37000
 C   159 -- C   384       -0.10      5.37000
 C   158 -- C   383       -0.10      5.37000
 C   157 -- C   382       -0.10      5.37000
 C   156 -- C   381       -0.10      5.37000
 C   155 -- C   355       -0.10      5.37000
 C   154 -- C   354       -0.10      5.37000
 C   153 -- C   353       -0.10      5.37000
 C   152 -- C   352       -0.10      5.37000
 C   151 -- C   351       -0.10      5.37000
 C   140 -- C   335       -0.10      5.37000
 C   139 -- C   334       -0.10      5.37000
 C   138 -- C   333       -0.10      5.37000
 C   137 -- C   332       -0.10      5.37000
 C   136 -- C   331       -0.10      5.37000
 C   115 -- C   325       -0.10      5.37000
 C   114 -- C   324       -0.10      5.37000
 C   113 -- C   323       -0.10      5.37000
 C   112 -- C   322       -0.10      5.37000
 C   111 -- C   321       -0.10      5.37000
 C   219 -- C   569       -0.10      5.37202
 C   218 -- C   568       -0.10      5.37202
 C   217 -- C   567       -0.10      5.37202
 C   216 -- C   566       -0.10      5.37202
 C   250 -- C   540       -0.10      5.37202
 C   249 -- C   539       -0.10      5.37202
 C   248 -- C   538       -0.10      5.37202
 C   247 -- C   537       -0.10      5.37202
 C   246 -- C   536       -0.10      5.37202
 C   220 -- C   570       -0.10      5.37202
 C   285 -- C   580       -0.10      5.37202
 C   284 -- C   579       -0.10      5.37202
 C   283 -- C   578       -0.10      5.37202
 C   282 -- C   577       -0.10      5.37202
 C   281 -- C   576       -0.10      5.37202
 C   260 -- C   605       -0.10      5.37202
 C   259 -- C   604       -0.10      5.37202
 C   258 -- C   603       -0.10      5.37202
 C   257 -- C   602       -0.10      5.37202
 C   256 -- C   601       -0.10      5.37202
 C   220 -- C   515       -0.10      5.37202
 C   219 -- C   514       -0.10      5.37202
 C   218 -- C   513       -0.10      5.37202
 C   217 -- C   512       -0.10      5.37202
 C   216 -- C   511       -0.10      5.37202
 C   195 -- C   540       -0.10      5.37202
 C   195 -- C   500       -0.10      5.37202
 C   194 -- C   539       -0.10      5.37202
 C   194 -- C   499       -0.10      5.37202
 C   193 -- C   538       -0.10      5.37202
 C   193 -- C   498       -0.10      5.37202
 C   192 -- C   537       -0.10      5.37202
 C   192 -- C   497       -0.10      5.37202
 C   191 -- C   536       -0.10      5.37202
 C   191 -- C   496       -0.10      5.37202
 C   180 -- C   515       -0.10      5.37202
 C   179 -- C   514       -0.10      5.37202
 C   178 -- C   513       -0.10      5.37202
 C   177 -- C   512       -0.10      5.37202
 C   176 -- C   511       -0.10      5.37202
 C    11 -- C   331       -0.10      5.37202
 C   205 -- C   550       -0.10      5.37202
 C   204 -- C   549       -0.10      5.37202
 C   203 -- C   548       -0.10      5.37202
 C   202 -- C   547       -0.10      5.37202
 C   201 -- C   546       -0.10      5.37202
 C    95 -- C   425       -0.10      5.37202
 C    95 -- C   365       -0.10      5.37202
 C    94 -- C   424       -0.10      5.37202
 C    94 -- C   364       -0.10      5.37202
 C    93 -- C   423       -0.10      5.37202
 C    93 -- C   363       -0.10      5.37202
 C    92 -- C   422       -0.10      5.37202
 C    92 -- C   362       -0.10      5.37202
 C    91 -- C   421       -0.10      5.37202
 C    91 -- C   361       -0.10      5.37202
 C    40 -- C   365       -0.10      5.37202
 C    39 -- C   364       -0.10      5.37202
 C    38 -- C   363       -0.10      5.37202
 C    37 -- C   362       -0.10      5.37202
 C    36 -- C   361       -0.10      5.37202
 C    15 -- C   335       -0.10      5.37202
 C    65 -- C   395       -0.10      5.37202
 C    65 -- C   345       -0.10      5.37202
 C    64 -- C   394       -0.10      5.37202
 C    64 -- C   344       -0.10      5.37202
 C    63 -- C   393       -0.10      5.37202
 C    30 -- C   355       -0.10      5.37202
 C    63 -- C   343       -0.10      5.37202
 C    62 -- C   392       -0.10      5.37202
 C    30 -- C   325       -0.10      5.37202
 C    14 -- C   334       -0.10      5.37202
 C    62 -- C   342       -0.10      5.37202
 C    61 -- C   391       -0.10      5.37202
 C    29 -- C   354       -0.10      5.37202
 C    61 -- C   341       -0.10      5.37202
 C    29 -- C   324       -0.10      5.37202
 C   260 -- C   550       -0.10      5.37202
 C   259 -- C   549       -0.10      5.37202
 C    28 -- C   353       -0.10      5.37202
 C   258 -- C   548       -0.10      5.37202
 C   257 -- C   547       -0.10      5.37202
 C   256 -- C   546       -0.10      5.37202
 C    28 -- C   323       -0.10      5.37202
 C    27 -- C   352       -0.10      5.37202
 C    13 -- C   333       -0.10      5.37202
 C    27 -- C   322       -0.10      5.37202
 C   120 -- C   395       -0.10      5.37202
 C    26 -- C   351       -0.10      5.37202
 C   119 -- C   394       -0.10      5.37202
 C   118 -- C   393       -0.10      5.37202
 C    55 -- C   335       -0.10      5.37202
 C   117 -- C   392       -0.10      5.37202
 C    26 -- C   321       -0.10      5.37202
 C   116 -- C   391       -0.10      5.37202
 C    54 -- C   334       -0.10      5.37202
 C    12 -- C   332       -0.10      5.37202
 C    53 -- C   333       -0.10      5.37202
 C   230 -- C   580       -0.10      5.37202
 C   230 -- C   525       -0.10      5.37202
 C   229 -- C   579       -0.10      5.37202
 C   229 -- C   524       -0.10      5.37202
 C   228 -- C   578       -0.10      5.37202
 C    52 -- C   332       -0.10      5.37202
 C   228 -- C   523       -0.10      5.37202
 C   227 -- C   577       -0.10      5.37202
 C   227 -- C   522       -0.10      5.37202
 C   226 -- C   576       -0.10      5.37202
 C   226 -- C   521       -0.10      5.37202
 C    51 -- C   331       -0.10      5.37202
 C    23 -- C   478       -0.10      5.37202
 C    49 -- C   469       -0.10      5.37202
 C    48 -- C   468       -0.10      5.37202
 C    47 -- C   467       -0.10      5.37202
 C    22 -- C   477       -0.10      5.37202
 C    46 -- C   466       -0.10      5.37202
 C    21 -- C   476       -0.10      5.37202
 C    85 -- C   355       -0.10      5.37202
 C    84 -- C   354       -0.10      5.37202
 C    83 -- C   353       -0.10      5.37202
 C    82 -- C   352       -0.10      5.37202
 C    81 -- C   351       -0.10      5.37202
 C    55 -- C   385       -0.10      5.37202
 C    54 -- C   384       -0.10      5.37202
 C    25 -- C   480       -0.10      5.37202
 C    53 -- C   383       -0.10      5.37202
 C    52 -- C   382       -0.10      5.37202
 C    51 -- C   381       -0.10      5.37202
 C    24 -- C   479       -0.10      5.37202
 C    50 -- C   470       -0.10      5.37202
 C    24 -- C   449       -0.10      5.37202
 C     6 -- C   416       -0.10      5.37202
 C    23 -- C   448       -0.10      5.37202
 C    22 -- C   447       -0.10      5.37202
 C    10 -- C   470       -0.10      5.37202
 C     5 -- C   450       -0.10      5.37202
 C    21 -- C   446       -0.10      5.37202
 C    10 -- C   420       -0.10      5.37202
 C     9 -- C   469       -0.10      5.37202
 C     9 -- C   419       -0.10      5.37202
 C     8 -- C   468       -0.10      5.37202
 C     4 -- C   449       -0.10      5.37202
 C   150 -- C   440       -0.10      5.37202
 C   149 -- C   439       -0.10      5.37202
 C   148 -- C   438       -0.10      5.37202
 C   147 -- C   437       -0.10      5.37202
 C     8 -- C   418       -0.10      5.37202
 C   146 -- C   436       -0.10      5.37202
 C     2 -- C   447       -0.10      5.37202
 C   135 -- C   460       -0.10      5.37202
 C     7 -- C   467       -0.10      5.37202
 C   134 -- C   459       -0.10      5.37202
 C   133 -- C   458       -0.10      5.37202
 C   132 -- C   457       -0.10      5.37202
 C   131 -- C   456       -0.10      5.37202
 C     7 -- C   417       -0.10      5.37202
 C     1 -- C   446       -0.10      5.37202
 C     6 -- C   466       -0.10      5.37202
 C    25 -- C   450       -0.10      5.37202
 C     3 -- C   448       -0.10      5.37202
 C   106 -- C   436       -0.10      5.37202
 C   106 -- C   376       -0.10      5.37202
 C    80 -- C   410       -0.10      5.37202
 C    79 -- C   409       -0.10      5.37202
 C    78 -- C   408       -0.10      5.37202
 C    77 -- C   407       -0.10      5.37202
 C    76 -- C   406       -0.10      5.37202
 C   135 -- C   410       -0.10      5.37202
 C   134 -- C   409       -0.10      5.37202
 C   133 -- C   408       -0.10      5.37202
 C   132 -- C   407       -0.10      5.37202
 C   131 -- C   406       -0.10      5.37202
 C   110 -- C   440       -0.10      5.37202
 C   110 -- C   380       -0.10      5.37202
 C   109 -- C   439       -0.10      5.37202
 C   109 -- C   379       -0.10      5.37202
 C   108 -- C   438       -0.10      5.37202
 C   108 -- C   378       -0.10      5.37202
 C   107 -- C   437       -0.10      5.37202
 C   107 -- C   377       -0.10      5.37202
 C   215 -- C   635       -0.10      5.38000
 C   214 -- C   634       -0.10      5.38000
 C   213 -- C   633       -0.10      5.38000
 C   212 -- C   632       -0.10      5.38000
 C   211 -- C   631       -0.10      5.38000
 C   190 -- C   620       -0.10      5.38000
 C   189 -- C   619       -0.10      5.38000
 C   188 -- C   618       -0.10      5.38000
 C   187 -- C   617       -0.10      5.38000
 C   186 -- C   616       -0.10      5.38000
 C   175 -- C   595       -0.10      5.38000
 C   174 -- C   594       -0.10      5.38000
 C   173 -- C   593       -0.10      5.38000
 C   172 -- C   592       -0.10      5.38000
 C   171 -- C   591       -0.10      5.38000
 C   245 -- C   640       -0.10      5.38000
 C   244 -- C   639       -0.10      5.38000
 C   243 -- C   638       -0.10      5.38000
 C   242 -- C   637       -0.10      5.38000
 C   241 -- C   636       -0.10      5.38000
==================================================


=================== Orbital energy and occupancy information ===================

      Total number of orbitals:    2560
        Occupancy sum (kernel):    1279.999999999
   Occupancy sum (eigenvalues):    1279.999999999
                 HOMO-LUMO gap:       0.067005767 Eh
                 Mid-gap level:       0.216336186 Eh

                        Orbital | Energy (Eh) | Occupancy
                            1    -0.506073421   1.0000000
                        .......   ...........   .........
                         1271     0.178750865   0.9999892
                         1272     0.178760405   0.9999891
                         1273     0.179222523   0.9999874
                         1274     0.179232050   0.9999874
                         1275     0.181463714   0.9999745
                         1276     0.181469812   0.9999744
                         1277     0.181934099   0.9999704
                         1278     0.181940140   0.9999703
                         1279     0.182365009   0.9999661
                         1280     0.182833302   0.9999607
                        ....... -- gap at 0K -- .........
                         1281     0.249839069   0.0000164
                         1282     0.249842136   0.0000164
                         1283     0.250065504   0.0000153
                         1284     0.250068446   0.0000153
                         1285     0.250092106   0.0000151
                         1286     0.250095165   0.0000151
                         1287     0.250255441   0.0000144
                         1288     0.250327966   0.0000141
                         1289     0.250330934   0.0000140
                         1290     0.250520867   0.0000132
                        .......   ...........   .........
                         2560     1.110102567   0.0000000

================================================================================

===================== Writing canonical molecular orbitals =====================
| Orbital  Energy (eV)  Norm     |
| HOMO      4.97514731  1.000000 | Writing "3.756468_GO_manual_4x64graphite_HOMO.cube" ... done
Writing "3.756468_GO_manual_4x64graphite_HOMO.dx" ... done
| LUMO      6.79846701  1.000000 | Writing "3.756468_GO_manual_4x64graphite_LUMO.cube" ... done
Writing "3.756468_GO_manual_4x64graphite_LUMO.dx" ... done
================================================================================
 
===================== Density of States (DOS) calculation ======================
Writing "3.756468_GO_manual_4x64graphite_DOS.txt" ...  done
================================================================================
 
Writing bands to file "3.756468_GO_manual_4x64graphite.val_bands" ... done
 
================ Projected Density of States (pDOS) calculation ================
 
Constructing AM resolved functions  ...... done
Writing NGWF plot files in formats: CUBE DX ...  done
 
Performing overlap integrals ...  done
 
Computing pDOS weights ...  done
 
All bands spilling parameter =   3.12 %
Occupancy-weighted spilling parameter =   0.96 %
 
 => Outputting data for OptaDOS <=
 
Writing pDOS weights to file "3.756468_GO_manual_4x64graphite.val_pdos_bin" ... done
 
Writing band gradients to file "3.756468_GO_manual_4x64graphite.val_dome_bin" ... done
 
Writing Castep output cell file to "3.756468_GO_manual_4x64graphite-out.cell" ... done
 
 => Computing Gaussian smeared pDOS <= 
Writing "3.756468_GO_manual_4x64graphite_PDOS.txt" ...  done
 
 => Computing Occupancy-weighted Gaussian smeared pDOS <= 
Writing "3.756468_GO_manual_4x64graphite_occ_PDOS.txt" ...  done
  => Band centres: 
 S band centre of group 1:  -13.826878 eV
 P band centre of group 1:   -6.674764 eV
  Band centres done. <=
  => Integrated number of electrons in each AM band: 
 S num electrons of group 1:  577.134571
 P num electrons of group 1: 1958.170575
  Integrated number of electrons done. <=
================================================================================

------------------------------ TIMING INFORMATION ------------------------------
AVERAGE TIME:    3242.637s on     40 node(s)                                    
TOTAL TIME:      3242.638s on     40 node(s)                                    
================= AVERAGE TIMINGS FROM ALL NODES (CUMULATIVE) ==================
|| TAG                                    #calls    cpu time   %total  Gflops ||
|| work_imbalance                       :     1        0.00s   0.000%  ------ ||
|| paw_tcore_hartree_on_grid            :     1        0.00s   0.000%  ------ ||
|| paw_tcore_density                    :     1        0.01s   0.000%  ------ ||
|| paw_sphere_density_on_grid           :     1        0.01s   0.000%  ------ ||
|| sparse_set_to_garbage                :   147        0.02s   0.001%  ------ ||
|| paw_dij_hartree                      :   297        0.04s   0.001%  ------ ||
|| pseudo_make_structure_factor         :     1        0.06s   0.002%  ------ ||
|| basis_extract_function_from_box      :  1664        0.07s   0.002%  ------ ||
|| paw_species_calc_proj_prec_mat       :     1        0.12s   0.004%  ------ ||
|| paw_dataset_init                     :     1        0.15s   0.005%  ------ ||
|| density_init_guess_real              :     1        0.22s   0.007%  ------ ||
|| restart_kernel_write                 :    14        0.62s   0.019%  ------ ||
|| ngwfs_initialise_from_radial         :     2        0.67s   0.021%  ------ ||
|| sparse_init                          :     1        0.90s   0.028%  ------ ||
|| dense_normal_eigensolve              :     1        1.06s   0.033%  ------ ||
|| hartree_on_grid                      :   224        1.19s   0.037%  ------ ||
|| projectors_init_fftbox_recip         :   131        2.53s   0.078%  ------ ||
|| ewald_calculate_energy               :     1        3.46s   0.107%  ------ ||
|| fourier_apply_box_pair               :  2464        4.08s   0.126% 560.473 ||
|| basis_copy_function_to_box           : 21248        4.60s   0.142%  ------ ||
|| augmentation_screen_dij              :   229        5.12s   0.158%  ------ ||
|| sw_init                              :     1        6.73s   0.208%  ------ ||
|| sparse_embed_hotelling_invert_embed  :    25        7.09s   0.219%  ------ ||
|| ngwf_gradient_coeffs                 :    13        9.35s   0.288%  ------ ||
|| sparse_trace                         :  2688       12.27s   0.379%  ------ ||
|| cell_grid_extract_box_real           :  8924       13.14s   0.405%  ------ ||
|| fourier_apply_cell_backward          :  6915       13.86s   0.427%  66.120 ||
|| fourier_apply_cell_forward           :  6468       14.32s   0.442%  59.854 ||
|| cell_grid_deposit_box_real           : 28848       17.63s   0.544%  ------ ||
|| paw_dij_xc                           :   297       23.15s   0.714%  ------ ||
|| aug_nonlocal_mat                     :   284       32.26s   0.995%  ------ ||
|| density_fftbox_deposit_to_cell       : 14336       34.71s   1.070%  ------ ||
|| augmentation_density_on_grid         :   224       40.44s   1.247%  ------ ||
|| hamiltonian_energy_components        :     3       46.10s   1.422%  ------ ||
|| function_ops_brappd_ketppd           :    52       47.85s   1.476%  ------ ||
|| eigenstates_pdos                     :     1       48.39s   1.492%  ------ ||
|| eigenstates_calculate                :     1       52.35s   1.614%  ------ ||
|| projectors_func_ovlp_box             :    26       57.46s   1.772%  ------ ||
|| nlxc_vdw_energy                      :   446       60.06s   1.852%  ------ ||
|| xc_energy_potential                  :   223       67.28s   2.075%  ------ ||
|| integrals_kinetic                    :    25       80.27s   2.475%  ------ ||
|| properties_calculate                 :     1       93.62s   2.887%  ------ ||
|| dense_eigensolve                     :   195      102.32s   3.155%  ------ ||
|| potential_apply_to_ngwf_batch        :   276      107.34s   3.310%  ------ ||
|| sparse_product                       :  2735      110.23s   3.400%  ------ ||
|| restart_ngwfs_tightbox_output        :    12      129.72s   4.000%  ------ ||
|| basis_dot_function_with_box          : 6.506M     178.18s   5.495%  ------ ||
|| fourier_apply_box                    : 67136      207.97s   6.414% 978.280 ||
|| edft_diag_ngwf_ham                   :   194      221.82s   6.841%  ------ ||
|| integrals_locpot_mat_els_batch       :   276      227.60s   7.019%  ------ ||
|| projectors_gradient_batch            :    52      235.68s   7.268%  ------ ||
|| density_fftbox_interpolate_multiply  : 14336      278.00s   8.573%  ------ ||
|| projectors_grad_precond_batch        :    52      324.48s  10.007%  ------ ||
|| integrals_locpot_dbl_grid            :    69      336.09s  10.365%  ------ ||
|| density_batch_interp_deposit         :   896      345.68s  10.661%  ------ ||
|| edft_apply_smearing_operator         :   194      426.05s  13.139%  ------ ||
|| basis_add_function_to_box            : 18.51M     490.01s  15.111%  ------ ||
|| ngwf_gradient_build_batch            :    52      599.51s  18.488%  ------ ||
|| density_batch_row_sums               :   896      660.03s  20.355%  ------ ||
|| ngwf_gradient_batch                  :    52      788.63s  24.321%  ------ ||
|| ngwf_gradient_lnv                    :    13      816.55s  25.182%  ------ ||
|| density_on_dbl_grid                  :   224     1019.43s  31.438%  ------ ||
|| hamiltonian_lhxc_calculate           :   219     1106.18s  34.114%  ------ ||
|| edft_calculate                       :    13     1853.96s  57.175%  ------ ||
|| ngwf_cg_optimise                     :     1     3123.37s  96.322%  ------ ||
|| total_time                           :     1     3242.64s 100.000%  ------ ||
================================================================================
Overhead of generating timer report: 
- 0 ms averaging over threads,
- 5 ms ensuring consistency across MPI ranks,
- 0 ms printing in order.

Job completed: 29-02-2020 12:13 (-0000)

