 +---------------------------------------------------------------+
 |                                                               |
 |        ####### #     # ####### ####### ####### ######         |
 |        #     # ##    # #          #    #       #     #        |
 |        #     # # #   # #          #    #       #     #        |
 |        #     # #  #  # #####      #    #####   ######         |
 |        #     # #   # # #          #    #       #              |
 |        #     # #    ## #          #    #       #              |
 |        ####### #     # #######    #    ####### #              |
 |                                                               |
 |        Linear-Scaling Ab Initio Total Energy Program          |
 |                                                               |
 |          Release for academic collaborators of ODG            |
 |                                             Version 5.3.2.12  |
 |                                                               |
 +---------------------------------------------------------------+
 |                                                               |
 |  Authors:                                                     |
 |  Jacek Dziedzic, Peter D. Haynes, Nicholas D. M. Hine,        |
 |  Arash. A. Mostofi, Mike C. Payne and Chris-Kriton Skylaris   |
 |                                                               |
 |  Contributors:                                                |
 |  J. Aarons, L. Andrinopoulos, P. W. Avraam, R. A. Bell,       |
 |  A. Bhandari, G. A. Bramley, R. J. Charlton, S. J. Clark,     |
 |  R. J. Clements, G. C. Constantinescu, F. Corsetti,           |
 |  N. Corsini, O. Dieguez, S. M. M. Dubois, K. K. B. Duff,      |
 |  J. M. Escartin, A. Greco, H. Helal, Q. O. Hill, L. P. Lee,   |
 |  J.-H. Li, E. B. Linscott, G. Moynihan, D. D. O`Regan,        |
 |  O. K. Okan, M. J. S. Phipps, C. J. Pickard,                  |
 |  J. C. A. Prentice, M. I. J. Probert, L. E. Ratcliff,         |
 |  M. Robinson, A. Ruiz Serrano, J. S. Spencer, E. W. Tait,     |
 |  G. Teobaldi, D. Turban, V. Vitale, K. A. Wilkinson,          |
 |  C. Weber, J. C. Womack, N. Yeung and T. J. Zuehlsdorff       |
 |                                                               |
 |                                   Copyright (c) 2004-2020     |
 |                                                               |
 |  Please cite:                                                 |
 |  "Introducing ONETEP: Linear-scaling density functional       |
 |   simulations on parallel computers".                         |
 |   C.-K. Skylaris, P. D. Haynes, A. A. Mostofi, M. C. Payne.   |
 |   J. Chem. Phys. 122 084119 (2005).                           |
 |                                                               |
 |          in all publications arising from your use of ONETEP. |
 |                                                               |
 +---------------------------------------------------------------+
 |                                                               |
 |   ONETEP is based on developments described in the following  |
 |   publications:                                               |
 |                                                               |
 |  "Nonorthogonal generalized Wannier function pseudopotential  |
 |   plane-wave method".                                         |
 |   C.-K. Skylaris, A. A. Mostofi, P. D. Haynes, O. Dieguez,    |
 |   M. C. Payne.                                                |
 |   Phys. Rev. B 66 035119 (2002).                              |
 |                                                               |
 |  "Preconditioned iterative minimization for linear-scaling    |
 |   electronic structure calculations".                         |
 |   A. A. Mostofi, P. D. Haynes, C.-K. Skylaris, M. C. Payne.   |
 |   J. Chem. Phys. 119(17), pp.8842-8848 (2003).                |
 |                                                               |
 |  "Total-energy calculations on a real space grid with         |
 |   localized functions and a plane-wave basis".                |
 |   A. A. Mostofi, C.-K. Skylaris, P. D. Haynes, M. C. Payne.   |
 |   Comput. Phys. Commun. 147, pp.788-802 (2002).               |
 |                                                               |
 |  "Accurate kinetic energy evaluation in electronic structure  |
 |   calculations with localized functions on real space grids"  |
 |   C.-K. Skylaris, A. A. Mostofi, P. D. Haynes, C. J. Pickard, |
 |   M. C. Payne.                                                |
 |   Comput. Phys. Commun. 140, pp.315-322 (2001).               |
 |                                                               |
 |  "Accurate ionic forces and geometry optimization in linear-  |
 |   scaling density-functional theory with local orbitals"      |
 |   N. D. M. Hine, M. Robinson, P. D. Haynes, C.-K. Skylaris,   |
 |   M. C. Payne, and A. A. Mostofi.                             |
 |   Phys. Rev. B 83 195102 (2011).                              |
 |                                                               |
 +---------------------------------------------------------------+

Job started: 29-02-2020 11:22 (-0000)
 
Reading parameters from file "3.7832992_GO_manual_4x64graphite.dat" ...

WARNING: "cutoff_energy" not specified, but "psinc_spacing" specified.
         Using the latter to set the KE cutoff energy to  732.32021eV,
         thus *overriding* the default.

... done

If your calculation crashes here, before "Checking processes and threads..."
is displayed, then your stack size is insufficient.
If so, use "ulimit -s unlimited" at runtime.
You can disable this check with "check_stack_size F".

Checking processes and threads...
   Determining the default number of threads...
      No default threads set at compilation time: defaulting to 1.
      OpenMP library call suggests 4 threads.
      Hybrid MPI-OpenMP compilation detected.
      Number of MPI processes > 1.
      OMP_NUM_THREADS environment variable present and
      its value matches the one obtained from the OpenMP library call.
      Using this value as default.
      Default threads: 4
      Default applies to threads_max and threads_num_fftboxes.
      Settings in the input file override this default.
   ... done

   Running with 40 MPI processes.
   There are 10 MPI processes running on the same node as the root process.
   Each MPI process is using: 
               1 threads for simulation cell FFTs.
               1 threads for parallel FFT box operations.
               4 threads for loops over batched FFT box operations.
               4 threads in other parallel regions.
... done

Basic input checks...
Resetting ngwf_cg_rotate to TRUE for EDFT calculations
... done

Reading geometry and species blocks from file "3.7832992_GO_manual_4x64graphite.dat" ...
    
  PSINC grid spacing along a1 set to   0.511215680000a0 from input file.
  PSINC grid spacing along a2 set to   0.531284090000a0 from input file.
  PSINC grid spacing along a3 set to   0.507050640000a0 from input file.
  Number of PPD points along a3 set to 1.  This is 
  the default value, it may have been provided also in the input file.
... done
 Writing xyz coordinates to file "3.7832992_GO_manual_4x64graphite.xyz" ... done


--------------------------------------------------------------------------------
---------------------------------- INPUT FILE ----------------------------------
--------------------------------------------------------------------------------

task : singlepoint                                                              
do_properties : true                                                            
dx_format T                                                                     
edft T                                                                          
output_detail VERBOSE                                                           
write_xyz T                                                                     
xc_functional VDWDF                                                             
PSINC_SPACING 0.51121568 0.53128409 0.50705064                                  
paw T                                                                           
pdos_max_l = 2                                                                  
dos_smear  0.1 eV                                                               
popn_calculate T                                                                
PDOS_PSEUDOATOMIC T                                                             
PDOS_REDUCE_SWS F                                                               
PDOS_CONSTRUCT_BASIS F                                                          
PDOS_LOWDIN T                                                                   
PDOS_ORTH_ATOM_BLOCKS F                                                         
PDOS_LCAO_OPTIMIZE F                                                            
pdos_optados_output T                                                           
homo_plot 0                                                                     
lumo_plot 0                                                                     
homo_dens_plot -1                                                               
lumo_dens_plot -1                                                               
%BLOCK SPECIES                                                                  
C C 6 4 9.0                                                                     
%ENDBLOCK SPECIES                                                               
%BLOCK SPECIES_POT                                                              
C "~/pp/paw/c_pbe_abinit.paw"                                                   
%ENDBLOCK SPECIES_POT                                                           
%BLOCK SPECIES_ATOMIC_SET                                                       
C "SOLVE conf=2s2 2p2"                                                          
%ENDBLOCK SPECIES_ATOMIC_SET                                                    
%BLOCK LATTICE_CART                                                             
32.21  0.00  0.00                                                               
0.00 18.59  0.00                                                                
0.00  0.00 71.49                                                                
%ENDBLOCK LATTICE_CART                                                          
%BLOCK POSITIONS_ABS                                                            
C  0.00  0.00  3.57                                                             
C  0.00  0.00 17.87                                                             
C  0.00  0.00 32.17                                                             
C  0.00  0.00 46.47                                                             
C  0.00  0.00 60.77                                                             
C  0.00  4.65  3.57                                                             
C  0.00  4.65 17.87                                                             
C  0.00  4.65 32.17                                                             
C  0.00  4.65 46.47                                                             
C  0.00  4.65 60.77                                                             
C  4.03  2.32  3.57                                                             
C  4.03  2.32 17.87                                                             
C  4.03  2.32 32.17                                                             
C  4.03  2.32 46.47                                                             
C  4.03  2.32 60.77                                                             
C  8.05  0.00  3.57                                                             
C  8.05  0.00 17.87                                                             
C  8.05  0.00 32.17                                                             
C  8.05  0.00 46.47                                                             
C  8.05  0.00 60.77                                                             
C  0.00  9.30  3.57                                                             
C  0.00  9.30 17.87                                                             
C  0.00  9.30 32.17                                                             
C  0.00  9.30 46.47                                                             
C  0.00  9.30 60.77                                                             
C  4.03  6.97  3.57                                                             
C  4.03  6.97 17.87                                                             
C  4.03  6.97 32.17                                                             
C  4.03  6.97 46.47                                                             
C  4.03  6.97 60.77                                                             
C  8.05  4.65  3.57                                                             
C  8.05  4.65 17.87                                                             
C  8.05  4.65 32.17                                                             
C  8.05  4.65 46.47                                                             
C  8.05  4.65 60.77                                                             
C 12.08  2.32  3.57                                                             
C 12.08  2.32 17.87                                                             
C 12.08  2.32 32.17                                                             
C 12.08  2.32 46.47                                                             
C 12.08  2.32 60.77                                                             
C 16.10  0.00  3.57                                                             
C 16.10  0.00 17.87                                                             
C 16.10  0.00 32.17                                                             
C 16.10  0.00 46.47                                                             
C 16.10  0.00 60.77                                                             
C  0.00 13.95  3.57                                                             
C  0.00 13.95 17.87                                                             
C  0.00 13.95 32.17                                                             
C  0.00 13.95 46.47                                                             
C  0.00 13.95 60.77                                                             
C  4.03 11.62  3.57                                                             
C  4.03 11.62 17.87                                                             
C  4.03 11.62 32.17                                                             
C  4.03 11.62 46.47                                                             
C  4.03 11.62 60.77                                                             
C  8.05  9.30  3.57                                                             
C  8.05  9.30 17.87                                                             
C  8.05  9.30 32.17                                                             
C  8.05  9.30 46.47                                                             
C  8.05  9.30 60.77                                                             
C 12.08  6.97  3.57                                                             
C 12.08  6.97 17.87                                                             
C 12.08  6.97 32.17                                                             
C 12.08  6.97 46.47                                                             
C 12.08  6.97 60.77                                                             
C 16.10  4.65  3.57                                                             
C 16.10  4.65 17.87                                                             
C 16.10  4.65 32.17                                                             
C 16.10  4.65 46.47                                                             
C 16.10  4.65 60.77                                                             
C 20.13  2.32  3.57                                                             
C 20.13  2.32 17.87                                                             
C 20.13  2.32 32.17                                                             
C 20.13  2.32 46.47                                                             
C 20.13  2.32 60.77                                                             
C 24.16  0.00  3.57                                                             
C 24.16  0.00 17.87                                                             
C 24.16  0.00 32.17                                                             
C 24.16  0.00 46.47                                                             
C 24.16  0.00 60.77                                                             
C  4.03 16.27  3.57                                                             
C  4.03 16.27 17.87                                                             
C  4.03 16.27 32.17                                                             
C  4.03 16.27 46.47                                                             
C  4.03 16.27 60.77                                                             
C  8.05 13.95  3.57                                                             
C  8.05 13.95 17.87                                                             
C  8.05 13.95 32.17                                                             
C  8.05 13.95 46.47                                                             
C  8.05 13.95 60.77                                                             
C 12.08 11.62  3.57                                                             
C 12.08 11.62 17.87                                                             
C 12.08 11.62 32.17                                                             
C 12.08 11.62 46.47                                                             
C 12.08 11.62 60.77                                                             
C 16.10  9.30  3.57                                                             
C 16.10  9.30 17.87                                                             
C 16.10  9.30 32.17                                                             
C 16.10  9.30 46.47                                                             
C 16.10  9.30 60.77                                                             
C 20.13  6.97  3.57                                                             
C 20.13  6.97 17.87                                                             
C 20.13  6.97 32.17                                                             
C 20.13  6.97 46.47                                                             
C 20.13  6.97 60.77                                                             
C 24.16  4.65  3.57                                                             
C 24.16  4.65 17.87                                                             
C 24.16  4.65 32.17                                                             
C 24.16  4.65 46.47                                                             
C 24.16  4.65 60.77                                                             
C 28.18  2.32  3.57                                                             
C 28.18  2.32 17.87                                                             
C 28.18  2.32 32.17                                                             
C 28.18  2.32 46.47                                                             
C 28.18  2.32 60.77                                                             
C 12.08 16.27  3.57                                                             
C 12.08 16.27 17.87                                                             
C 12.08 16.27 32.17                                                             
C 12.08 16.27 46.47                                                             
C 12.08 16.27 60.77                                                             
C 16.10 13.95  3.57                                                             
C 16.10 13.95 17.87                                                             
C 16.10 13.95 32.17                                                             
C 16.10 13.95 46.47                                                             
C 16.10 13.95 60.77                                                             
C 20.13 11.62  3.57                                                             
C 20.13 11.62 17.87                                                             
C 20.13 11.62 32.17                                                             
C 20.13 11.62 46.47                                                             
C 20.13 11.62 60.77                                                             
C 24.16  9.30  3.57                                                             
C 24.16  9.30 17.87                                                             
C 24.16  9.30 32.17                                                             
C 24.16  9.30 46.47                                                             
C 24.16  9.30 60.77                                                             
C 28.18  6.97  3.57                                                             
C 28.18  6.97 17.87                                                             
C 28.18  6.97 32.17                                                             
C 28.18  6.97 46.47                                                             
C 28.18  6.97 60.77                                                             
C 20.13 16.27  3.57                                                             
C 20.13 16.27 17.87                                                             
C 20.13 16.27 32.17                                                             
C 20.13 16.27 46.47                                                             
C 20.13 16.27 60.77                                                             
C 24.16 13.95  3.57                                                             
C 24.16 13.95 17.87                                                             
C 24.16 13.95 32.17                                                             
C 24.16 13.95 46.47                                                             
C 24.16 13.95 60.77                                                             
C 28.18 11.62  3.57                                                             
C 28.18 11.62 17.87                                                             
C 28.18 11.62 32.17                                                             
C 28.18 11.62 46.47                                                             
C 28.18 11.62 60.77                                                             
C 28.18 16.27  3.57                                                             
C 28.18 16.27 17.87                                                             
C 28.18 16.27 32.17                                                             
C 28.18 16.27 46.47                                                             
C 28.18 16.27 60.77                                                             
C  0.00  0.00 10.72                                                             
C  0.00  0.00 25.02                                                             
C  0.00  0.00 39.32                                                             
C  0.00  0.00 53.62                                                             
C  0.00  0.00 67.92                                                             
C  0.00  4.65 10.72                                                             
C  0.00  4.65 25.02                                                             
C  0.00  4.65 39.32                                                             
C  0.00  4.65 53.62                                                             
C  0.00  4.65 67.92                                                             
C  4.03  2.32 10.72                                                             
C  4.03  2.32 25.02                                                             
C  4.03  2.32 39.32                                                             
C  4.03  2.32 53.62                                                             
C  4.03  2.32 67.92                                                             
C  8.05  0.00 10.72                                                             
C  8.05  0.00 25.02                                                             
C  8.05  0.00 39.32                                                             
C  8.05  0.00 53.62                                                             
C  8.05  0.00 67.92                                                             
C  0.00  9.30 10.72                                                             
C  0.00  9.30 25.02                                                             
C  0.00  9.30 39.32                                                             
C  0.00  9.30 53.62                                                             
C  0.00  9.30 67.92                                                             
C  4.03  6.97 10.72                                                             
C  4.03  6.97 25.02                                                             
C  4.03  6.97 39.32                                                             
C  4.03  6.97 53.62                                                             
C  4.03  6.97 67.92                                                             
C  8.05  4.65 10.72                                                             
C  8.05  4.65 25.02                                                             
C  8.05  4.65 39.32                                                             
C  8.05  4.65 53.62                                                             
C  8.05  4.65 67.92                                                             
C 12.08  2.32 10.72                                                             
C 12.08  2.32 25.02                                                             
C 12.08  2.32 39.32                                                             
C 12.08  2.32 53.62                                                             
C 12.08  2.32 67.92                                                             
C 16.10  0.00 10.72                                                             
C 16.10  0.00 25.02                                                             
C 16.10  0.00 39.32                                                             
C 16.10  0.00 53.62                                                             
C 16.10  0.00 67.92                                                             
C  0.00 13.95 10.72                                                             
C  0.00 13.95 25.02                                                             
C  0.00 13.95 39.32                                                             
C  0.00 13.95 53.62                                                             
C  0.00 13.95 67.92                                                             
C  4.03 11.62 10.72                                                             
C  4.03 11.62 25.02                                                             
C  4.03 11.62 39.32                                                             
C  4.03 11.62 53.62                                                             
C  4.03 11.62 67.92                                                             
C  8.05  9.30 10.72                                                             
C  8.05  9.30 25.02                                                             
C  8.05  9.30 39.32                                                             
C  8.05  9.30 53.62                                                             
C  8.05  9.30 67.92                                                             
C 12.08  6.97 10.72                                                             
C 12.08  6.97 25.02                                                             
C 12.08  6.97 39.32                                                             
C 12.08  6.97 53.62                                                             
C 12.08  6.97 67.92                                                             
C 16.10  4.65 10.72                                                             
C 16.10  4.65 25.02                                                             
C 16.10  4.65 39.32                                                             
C 16.10  4.65 53.62                                                             
C 16.10  4.65 67.92                                                             
C 20.13  2.32 10.72                                                             
C 20.13  2.32 25.02                                                             
C 20.13  2.32 39.32                                                             
C 20.13  2.32 53.62                                                             
C 20.13  2.32 67.92                                                             
C 24.16  0.00 10.72                                                             
C 24.16  0.00 25.02                                                             
C 24.16  0.00 39.32                                                             
C 24.16  0.00 53.62                                                             
C 24.16  0.00 67.92                                                             
C  4.03 16.27 10.72                                                             
C  4.03 16.27 25.02                                                             
C  4.03 16.27 39.32                                                             
C  4.03 16.27 53.62                                                             
C  4.03 16.27 67.92                                                             
C  8.05 13.95 10.72                                                             
C  8.05 13.95 25.02                                                             
C  8.05 13.95 39.32                                                             
C  8.05 13.95 53.62                                                             
C  8.05 13.95 67.92                                                             
C 12.08 11.62 10.72                                                             
C 12.08 11.62 25.02                                                             
C 12.08 11.62 39.32                                                             
C 12.08 11.62 53.62                                                             
C 12.08 11.62 67.92                                                             
C 16.10  9.30 10.72                                                             
C 16.10  9.30 25.02                                                             
C 16.10  9.30 39.32                                                             
C 16.10  9.30 53.62                                                             
C 16.10  9.30 67.92                                                             
C 20.13  6.97 10.72                                                             
C 20.13  6.97 25.02                                                             
C 20.13  6.97 39.32                                                             
C 20.13  6.97 53.62                                                             
C 20.13  6.97 67.92                                                             
C 24.16  4.65 10.72                                                             
C 24.16  4.65 25.02                                                             
C 24.16  4.65 39.32                                                             
C 24.16  4.65 53.62                                                             
C 24.16  4.65 67.92                                                             
C 28.18  2.32 10.72                                                             
C 28.18  2.32 25.02                                                             
C 28.18  2.32 39.32                                                             
C 28.18  2.32 53.62                                                             
C 28.18  2.32 67.92                                                             
C 12.08 16.27 10.72                                                             
C 12.08 16.27 25.02                                                             
C 12.08 16.27 39.32                                                             
C 12.08 16.27 53.62                                                             
C 12.08 16.27 67.92                                                             
C 16.10 13.95 10.72                                                             
C 16.10 13.95 25.02                                                             
C 16.10 13.95 39.32                                                             
C 16.10 13.95 53.62                                                             
C 16.10 13.95 67.92                                                             
C 20.13 11.62 10.72                                                             
C 20.13 11.62 25.02                                                             
C 20.13 11.62 39.32                                                             
C 20.13 11.62 53.62                                                             
C 20.13 11.62 67.92                                                             
C 24.16  9.30 10.72                                                             
C 24.16  9.30 25.02                                                             
C 24.16  9.30 39.32                                                             
C 24.16  9.30 53.62                                                             
C 24.16  9.30 67.92                                                             
C 28.18  6.97 10.72                                                             
C 28.18  6.97 25.02                                                             
C 28.18  6.97 39.32                                                             
C 28.18  6.97 53.62                                                             
C 28.18  6.97 67.92                                                             
C 20.13 16.27 10.72                                                             
C 20.13 16.27 25.02                                                             
C 20.13 16.27 39.32                                                             
C 20.13 16.27 53.62                                                             
C 20.13 16.27 67.92                                                             
C 24.16 13.95 10.72                                                             
C 24.16 13.95 25.02                                                             
C 24.16 13.95 39.32                                                             
C 24.16 13.95 53.62                                                             
C 24.16 13.95 67.92                                                             
C 28.18 11.62 10.72                                                             
C 28.18 11.62 25.02                                                             
C 28.18 11.62 39.32                                                             
C 28.18 11.62 53.62                                                             
C 28.18 11.62 67.92                                                             
C 28.18 16.27 10.72                                                             
C 28.18 16.27 25.02                                                             
C 28.18 16.27 39.32                                                             
C 28.18 16.27 53.62                                                             
C 28.18 16.27 67.92                                                             
C  1.34  2.32  3.57                                                             
C  1.34  2.32 17.87                                                             
C  1.34  2.32 32.17                                                             
C  1.34  2.32 46.47                                                             
C  1.34  2.32 60.77                                                             
C  5.37  0.00  3.57                                                             
C  5.37  0.00 17.87                                                             
C  5.37  0.00 32.17                                                             
C  5.37  0.00 46.47                                                             
C  5.37  0.00 60.77                                                             
C  1.34  6.97  3.57                                                             
C  1.34  6.97 17.87                                                             
C  1.34  6.97 32.17                                                             
C  1.34  6.97 46.47                                                             
C  1.34  6.97 60.77                                                             
C  5.37  4.65  3.57                                                             
C  5.37  4.65 17.87                                                             
C  5.37  4.65 32.17                                                             
C  5.37  4.65 46.47                                                             
C  5.37  4.65 60.77                                                             
C  9.39  2.32  3.57                                                             
C  9.39  2.32 17.87                                                             
C  9.39  2.32 32.17                                                             
C  9.39  2.32 46.47                                                             
C  9.39  2.32 60.77                                                             
C 13.42  0.00  3.57                                                             
C 13.42  0.00 17.87                                                             
C 13.42  0.00 32.17                                                             
C 13.42  0.00 46.47                                                             
C 13.42  0.00 60.77                                                             
C  1.34 11.62  3.57                                                             
C  1.34 11.62 17.87                                                             
C  1.34 11.62 32.17                                                             
C  1.34 11.62 46.47                                                             
C  1.34 11.62 60.77                                                             
C  5.37  9.30  3.57                                                             
C  5.37  9.30 17.87                                                             
C  5.37  9.30 32.17                                                             
C  5.37  9.30 46.47                                                             
C  5.37  9.30 60.77                                                             
C  9.39  6.97  3.57                                                             
C  9.39  6.97 17.87                                                             
C  9.39  6.97 32.17                                                             
C  9.39  6.97 46.47                                                             
C  9.39  6.97 60.77                                                             
C 13.42  4.65  3.57                                                             
C 13.42  4.65 17.87                                                             
C 13.42  4.65 32.17                                                             
C 13.42  4.65 46.47                                                             
C 13.42  4.65 60.77                                                             
C 17.45  2.32  3.57                                                             
C 17.45  2.32 17.87                                                             
C 17.45  2.32 32.17                                                             
C 17.45  2.32 46.47                                                             
C 17.45  2.32 60.77                                                             
C 21.47  0.00  3.57                                                             
C 21.47  0.00 17.87                                                             
C 21.47  0.00 32.17                                                             
C 21.47  0.00 46.47                                                             
C 21.47  0.00 60.77                                                             
C  1.34 16.27  3.57                                                             
C  1.34 16.27 17.87                                                             
C  1.34 16.27 32.17                                                             
C  1.34 16.27 46.47                                                             
C  1.34 16.27 60.77                                                             
C  5.37 13.95  3.57                                                             
C  5.37 13.95 17.87                                                             
C  5.37 13.95 32.17                                                             
C  5.37 13.95 46.47                                                             
C  5.37 13.95 60.77                                                             
C  9.39 11.62  3.57                                                             
C  9.39 11.62 17.87                                                             
C  9.39 11.62 32.17                                                             
C  9.39 11.62 46.47                                                             
C  9.39 11.62 60.77                                                             
C 13.42  9.30  3.57                                                             
C 13.42  9.30 17.87                                                             
C 13.42  9.30 32.17                                                             
C 13.42  9.30 46.47                                                             
C 13.42  9.30 60.77                                                             
C 17.45  6.97  3.57                                                             
C 17.45  6.97 17.87                                                             
C 17.45  6.97 32.17                                                             
C 17.45  6.97 46.47                                                             
C 17.45  6.97 60.77                                                             
C 21.47  4.65  3.57                                                             
C 21.47  4.65 17.87                                                             
C 21.47  4.65 32.17                                                             
C 21.47  4.65 46.47                                                             
C 21.47  4.65 60.77                                                             
C 25.50  2.32  3.57                                                             
C 25.50  2.32 17.87                                                             
C 25.50  2.32 32.17                                                             
C 25.50  2.32 46.47                                                             
C 25.50  2.32 60.77                                                             
C 29.52  0.00  3.57                                                             
C 29.52  0.00 17.87                                                             
C 29.52  0.00 32.17                                                             
C 29.52  0.00 46.47                                                             
C 29.52  0.00 60.77                                                             
C  9.39 16.27  3.57                                                             
C  9.39 16.27 17.87                                                             
C  9.39 16.27 32.17                                                             
C  9.39 16.27 46.47                                                             
C  9.39 16.27 60.77                                                             
C 13.42 13.95  3.57                                                             
C 13.42 13.95 17.87                                                             
C 13.42 13.95 32.17                                                             
C 13.42 13.95 46.47                                                             
C 13.42 13.95 60.77                                                             
C 17.45 11.62  3.57                                                             
C 17.45 11.62 17.87                                                             
C 17.45 11.62 32.17                                                             
C 17.45 11.62 46.47                                                             
C 17.45 11.62 60.77                                                             
C 21.47  9.30  3.57                                                             
C 21.47  9.30 17.87                                                             
C 21.47  9.30 32.17                                                             
C 21.47  9.30 46.47                                                             
C 21.47  9.30 60.77                                                             
C 25.50  6.97  3.57                                                             
C 25.50  6.97 17.87                                                             
C 25.50  6.97 32.17                                                             
C 25.50  6.97 46.47                                                             
C 25.50  6.97 60.77                                                             
C 29.52  4.65  3.57                                                             
C 29.52  4.65 17.87                                                             
C 29.52  4.65 32.17                                                             
C 29.52  4.65 46.47                                                             
C 29.52  4.65 60.77                                                             
C 17.45 16.27  3.57                                                             
C 17.45 16.27 17.87                                                             
C 17.45 16.27 32.17                                                             
C 17.45 16.27 46.47                                                             
C 17.45 16.27 60.77                                                             
C 21.47 13.95  3.57                                                             
C 21.47 13.95 17.87                                                             
C 21.47 13.95 32.17                                                             
C 21.47 13.95 46.47                                                             
C 21.47 13.95 60.77                                                             
C 25.50 11.62  3.57                                                             
C 25.50 11.62 17.87                                                             
C 25.50 11.62 32.17                                                             
C 25.50 11.62 46.47                                                             
C 25.50 11.62 60.77                                                             
C 29.52  9.30  3.57                                                             
C 29.52  9.30 17.87                                                             
C 29.52  9.30 32.17                                                             
C 29.52  9.30 46.47                                                             
C 29.52  9.30 60.77                                                             
C 25.50 16.27  3.57                                                             
C 25.50 16.27 17.87                                                             
C 25.50 16.27 32.17                                                             
C 25.50 16.27 46.47                                                             
C 25.50 16.27 60.77                                                             
C 29.52 13.95  3.57                                                             
C 29.52 13.95 17.87                                                             
C 29.52 13.95 32.17                                                             
C 29.52 13.95 46.47                                                             
C 29.52 13.95 60.77                                                             
C  2.68  0.00 10.72                                                             
C  2.68  0.00 25.02                                                             
C  2.68  0.00 39.32                                                             
C  2.68  0.00 53.62                                                             
C  2.68  0.00 67.92                                                             
C  2.68  4.65 10.72                                                             
C  2.68  4.65 25.02                                                             
C  2.68  4.65 39.32                                                             
C  2.68  4.65 53.62                                                             
C  2.68  4.65 67.92                                                             
C  6.71  2.32 10.72                                                             
C  6.71  2.32 25.02                                                             
C  6.71  2.32 39.32                                                             
C  6.71  2.32 53.62                                                             
C  6.71  2.32 67.92                                                             
C 10.74  0.00 10.72                                                             
C 10.74  0.00 25.02                                                             
C 10.74  0.00 39.32                                                             
C 10.74  0.00 53.62                                                             
C 10.74  0.00 67.92                                                             
C  2.68  9.30 10.72                                                             
C  2.68  9.30 25.02                                                             
C  2.68  9.30 39.32                                                             
C  2.68  9.30 53.62                                                             
C  2.68  9.30 67.92                                                             
C  6.71  6.97 10.72                                                             
C  6.71  6.97 25.02                                                             
C  6.71  6.97 39.32                                                             
C  6.71  6.97 53.62                                                             
C  6.71  6.97 67.92                                                             
C 10.74  4.65 10.72                                                             
C 10.74  4.65 25.02                                                             
C 10.74  4.65 39.32                                                             
C 10.74  4.65 53.62                                                             
C 10.74  4.65 67.92                                                             
C 14.76  2.32 10.72                                                             
C 14.76  2.32 25.02                                                             
C 14.76  2.32 39.32                                                             
C 14.76  2.32 53.62                                                             
C 14.76  2.32 67.92                                                             
C 18.79  0.00 10.72                                                             
C 18.79  0.00 25.02                                                             
C 18.79  0.00 39.32                                                             
C 18.79  0.00 53.62                                                             
C 18.79  0.00 67.92                                                             
C  2.68 13.95 10.72                                                             
C  2.68 13.95 25.02                                                             
C  2.68 13.95 39.32                                                             
C  2.68 13.95 53.62                                                             
C  2.68 13.95 67.92                                                             
C  6.71 11.62 10.72                                                             
C  6.71 11.62 25.02                                                             
C  6.71 11.62 39.32                                                             
C  6.71 11.62 53.62                                                             
C  6.71 11.62 67.92                                                             
C 10.74  9.30 10.72                                                             
C 10.74  9.30 25.02                                                             
C 10.74  9.30 39.32                                                             
C 10.74  9.30 53.62                                                             
C 10.74  9.30 67.92                                                             
C 14.76  6.97 10.72                                                             
C 14.76  6.97 25.02                                                             
C 14.76  6.97 39.32                                                             
C 14.76  6.97 53.62                                                             
C 14.76  6.97 67.92                                                             
C 18.79  4.65 10.72                                                             
C 18.79  4.65 25.02                                                             
C 18.79  4.65 39.32                                                             
C 18.79  4.65 53.62                                                             
C 18.79  4.65 67.92                                                             
C 22.81  2.32 10.72                                                             
C 22.81  2.32 25.02                                                             
C 22.81  2.32 39.32                                                             
C 22.81  2.32 53.62                                                             
C 22.81  2.32 67.92                                                             
C 26.84  0.00 10.72                                                             
C 26.84  0.00 25.02                                                             
C 26.84  0.00 39.32                                                             
C 26.84  0.00 53.62                                                             
C 26.84  0.00 67.92                                                             
C  6.71 16.27 10.72                                                             
C  6.71 16.27 25.02                                                             
C  6.71 16.27 39.32                                                             
C  6.71 16.27 53.62                                                             
C  6.71 16.27 67.92                                                             
C 10.74 13.95 10.72                                                             
C 10.74 13.95 25.02                                                             
C 10.74 13.95 39.32                                                             
C 10.74 13.95 53.62                                                             
C 10.74 13.95 67.92                                                             
C 14.76 11.62 10.72                                                             
C 14.76 11.62 25.02                                                             
C 14.76 11.62 39.32                                                             
C 14.76 11.62 53.62                                                             
C 14.76 11.62 67.92                                                             
C 18.79  9.30 10.72                                                             
C 18.79  9.30 25.02                                                             
C 18.79  9.30 39.32                                                             
C 18.79  9.30 53.62                                                             
C 18.79  9.30 67.92                                                             
C 22.81  6.97 10.72                                                             
C 22.81  6.97 25.02                                                             
C 22.81  6.97 39.32                                                             
C 22.81  6.97 53.62                                                             
C 22.81  6.97 67.92                                                             
C 26.84  4.65 10.72                                                             
C 26.84  4.65 25.02                                                             
C 26.84  4.65 39.32                                                             
C 26.84  4.65 53.62                                                             
C 26.84  4.65 67.92                                                             
C 30.86  2.32 10.72                                                             
C 30.86  2.32 25.02                                                             
C 30.86  2.32 39.32                                                             
C 30.86  2.32 53.62                                                             
C 30.86  2.32 67.92                                                             
C 14.76 16.27 10.72                                                             
C 14.76 16.27 25.02                                                             
C 14.76 16.27 39.32                                                             
C 14.76 16.27 53.62                                                             
C 14.76 16.27 67.92                                                             
C 18.79 13.95 10.72                                                             
C 18.79 13.95 25.02                                                             
C 18.79 13.95 39.32                                                             
C 18.79 13.95 53.62                                                             
C 18.79 13.95 67.92                                                             
C 22.81 11.62 10.72                                                             
C 22.81 11.62 25.02                                                             
C 22.81 11.62 39.32                                                             
C 22.81 11.62 53.62                                                             
C 22.81 11.62 67.92                                                             
C 26.84  9.30 10.72                                                             
C 26.84  9.30 25.02                                                             
C 26.84  9.30 39.32                                                             
C 26.84  9.30 53.62                                                             
C 26.84  9.30 67.92                                                             
C 30.86  6.97 10.72                                                             
C 30.86  6.97 25.02                                                             
C 30.86  6.97 39.32                                                             
C 30.86  6.97 53.62                                                             
C 30.86  6.97 67.92                                                             
C 22.81 16.27 10.72                                                             
C 22.81 16.27 25.02                                                             
C 22.81 16.27 39.32                                                             
C 22.81 16.27 53.62                                                             
C 22.81 16.27 67.92                                                             
C 26.84 13.95 10.72                                                             
C 26.84 13.95 25.02                                                             
C 26.84 13.95 39.32                                                             
C 26.84 13.95 53.62                                                             
C 26.84 13.95 67.92                                                             
C 30.86 11.62 10.72                                                             
C 30.86 11.62 25.02                                                             
C 30.86 11.62 39.32                                                             
C 30.86 11.62 53.62                                                             
C 30.86 11.62 67.92                                                             
C 30.86 16.27 10.72                                                             
C 30.86 16.27 25.02                                                             
C 30.86 16.27 39.32                                                             
C 30.86 16.27 53.62                                                             
C 30.86 16.27 67.92                                                             
%ENDBLOCK POSITIONS_ABS                                                         

--------------------------------------------------------------------------------
-------------------------------- END INPUT FILE --------------------------------
--------------------------------------------------------------------------------


 
<<<<<<<<<<<<<<<<<<<<<<<<<<<<<<<<< Full system >>>>>>>>>>>>>>>>>>>>>>>>>>>>>>>>>>
<<<<<<<<<<<<<<<<<<<<<<<<<<< PAW Dataset information >>>>>>>>>>>>>>>>>>>>>>>>>>>
File: ~/pp/paw/c_pbe_abinit.paw; rc = 1.25 bohr; shape type =  3; rshape = 1.25 bohr;
  Atomic number:  6;  ionic charge:  4.000000
    Partial Wave 1: l = 0
    Partial Wave 2: l = 0
    Partial Wave 3: l = 1
    Partial Wave 4: l = 1
  Core charge supplied for Nonlinear Core Corrections
<<<<<<<<<<<<<<<<<<<<<<<<<<<<<<<<<<<<<<< >>>>>>>>>>>>>>>>>>>>>>>>>>>>>>>>>>>>>>>

-------------------------- Atom counting information ---------------------------
Symbol    Natoms    Nngwfs    Nprojs
  C        640      2560      5120
.......   ......    ......    ......
Totals:    640      2560      5120
--------------------------------------------------------------------------------

=============================== PSINC grid sizes ===============================
                      Simulation cell:   63 x  35 x 141
                              FFT-box:   63 x  35 x 117
                                  PPD:    7 x   5 x   1
Grid space d1=  0.511269841270a0 (KE cutoff=  29.06054Eh = 790.77748eV)
Grid space d2=  0.531142857143a0 (KE cutoff=  26.92659Eh = 732.70972eV)
Grid space d3=  0.507021276596a0 (KE cutoff=  29.54960Eh = 804.08558eV)
================================================================================
  
WARNING in cell_grid_distribute:
Average of less than one 23-slab per node, so workload cannot be
equally balanced between nodes.

********************* Fourier parallelisation information **********************
       Coarse grid (whole simulation cell) dimensions:     63    35   141
          Real-space ('12') slabs/node (min max mean):      3     4     3
         Recip-space ('23') slabs/node (min max mean):      0     1     0
********************************************************************************

********************* Fourier parallelisation information **********************
       Double grid (whole simulation cell) dimensions:    126    70   282
          Real-space ('12') slabs/node (min max mean):      7     8     7
         Recip-space ('23') slabs/node (min max mean):      1     2     1
********************************************************************************

Atom SCF Calculation for C  : Z (AE atom) =   6 : Z (PS atom) =   4
Config String: 2s2 2p2
Orbitals (num,occ):  2     2.00 2.00
Orbitals   (num,l):  2        0    1
Real-space Grid (nr,dr,rmax): 1293    0.0069659443    9.0000000000
Spherical Bessel Basis (nsws,lmax,cutoff):   37    2  161.4736382572
Confining potential (l,width,scale):  0    3.0000000000  100.0000000000
Confining potential (l,width,scale):  1    3.0000000000  100.0000000000
  1         -5.4966243538   -1.3415066196    4.5135257941   -1.6613421942
  2         -5.4660395227   -1.4172174419    4.4326892861   -1.6365362708
  3         -5.4759582348   -1.4337557188    4.4144498970   -1.6324663609
  4         -5.4843804720   -1.4365219414    4.4114201180   -1.6322033818
  5         -5.4882713954   -1.4381734139    4.4096331461   -1.6320227940
  6         -5.4902132675   -1.4390636620    4.4086785626   -1.6319270645
  7         -5.4912093711   -1.4395303631    4.4081823351   -1.6318789226
  8         -5.4917264140   -1.4397726342    4.4079268833   -1.6318551036
  9         -5.4919964206   -1.4398979410    4.4077958777   -1.6318434025
 10         -5.4921379132   -1.4399626875    4.4077287721   -1.6318376788
 11         -5.4922122245   -1.4399961532    4.4076943935   -1.6318348878
 12         -5.4922513136   -1.4400134684    4.4076767658   -1.6318335308
 13         -5.4922719001   -1.4400224400    4.4076677156   -1.6318328728
 14         -5.4922827535   -1.4400270959    4.4076630621   -1.6318325547
 15         -5.4922884809   -1.4400295164    4.4076606653   -1.6318324014
 16         -5.4922915059   -1.4400307770    4.4076594286   -1.6318323279
 17         -5.4922931051   -1.4400314347    4.4076587894   -1.6318322927
 18         -5.4922939512   -1.4400317785    4.4076584583   -1.6318322760
 19         -5.4922943993   -1.4400319585    4.4076582865   -1.6318322681
 20         -5.4922946368   -1.4400320529    4.4076581972   -1.6318322644
 21         -5.4922947627   -1.4400321025    4.4076581507   -1.6318322627
 22         -5.4922948296   -1.4400321287    4.4076581265   -1.6318322619
Atom SCF converged after  22 iterations to a total energy of     -5.49229483

Determining parallel strategy ...
... using space-filling curve
... NGWF load balancing: max     64;  min     64;  average     64
... Projector load balancing: max    128;  min    128;  average    128
... done
Calculating Ewald energy ...
              Ewald: real-space energy =    9485.797634
        Ewald: reciprocal-space energy =       0.411219
         Ewald: (sum_charge)**2 Energy =   10869.714563
         Ewald: (sum_charge**2) Energy =     859.326388
                          Ewald Energy =   -2242.832099
Basis initialisation ...... NGWF spheres initialised
... Projector spheres initialised
... NGWF tight boxes initialised
... Projector tight boxes initialised
... Tight-boxes gathered
... NGWF basis size (local,global):     691636  27895872
... PAW projector initialisation
... done

============================= Charge Augmentation ==============================
                           Aug box size:   11 x  11 x  11
================================================================================

========================== Sparse matrix information ===========================
                        Overlap matrix filling:  40.94%
                        Density kernel filling: 100.00%
              NGWF-Proj overlap matrix filling:  12.19%
                    Aug Overlap matrix filling:  47.03%
                    Hamiltonian matrix filling:  47.03%
                  NGWF diagonal matrix filling:   0.16%
                             KS matrix filling: 100.00% 
                           KSKS matrix filling: 100.00% 
================================================================================

Sparse matrix initialisation ... done
NGWF initialisation ...... done
============ Calculation of NGWF S^-1 using Hotelling algorithm ================ 
         Iteration  |  Frobenius norm and Maximum abs value    (of I-S*S_n^-1)   
               1       0.48946409E+02     0.97446057E+00
               2       0.47645949E+02     0.95081293E+00
               3       0.45723689E+02     0.90831405E+00
               4       0.43267914E+02     0.83801056E+00
               5       0.40348078E+02     0.73468431E+00
               6       0.36984196E+02     0.67327728E+00
               7       0.33519725E+02     0.62627235E+00
               8       0.30198166E+02     0.58615084E+00
               9       0.26561670E+02     0.53992051E+00
              10       0.21905831E+02     0.46624213E+00
              11       0.15869640E+02     0.35108281E+00
              12       0.90758270E+01     0.20436119E+00
              13       0.34196649E+01     0.74458471E-01
              14       0.58465616E+00     0.11499350E-01
              15       0.20785458E-01     0.34275581E-03
              16       0.35679724E-04     0.41229663E-06
              17       0.16119265E-09     0.11129986E-11
              18       0.68856902E-13     0.34416914E-14
================================================================================
Calculating core density ...
================================= Core Density =================================
               Core den box size:   21 x  21 x  21
================================================================================
 ... done
Up spin density kernel initialisation ...... done

Writing density kernel to file "3.7832992_GO_manual_4x64graphite.dkn" ... done

>>> Optimising kernel for current NGWFs:

--------------------------- Ensemble-DFT optimisation --------------------------
Running ScaLAPACK on   40 processor(s).

--------------------------------------------------------------------------------
  Iter                              Commutator    Free_energy(A=E-TS)     DeltaA
#    0                          0.000039802991   -3653.99118376700017  -3.65E+03

Step                       =       0.381966011250
Energy                     =   -3653.991157821347
Entropy (-TS)              =      -0.000025945697
Free energy (A=E-TS)       =   -3653.991183767000
Est. 0K Energy 0.5*(E+A)   =   -3653.991170794174
Residual Non-orthogonality =       0.000000000000
Residual N_electrons       =       0.000000000044

Spin          Integrated_Ne            Fermi_level     Delta_Fermi_level
   1      2559.999999999719         0.156281169495              1.56E-01

                           Spin 1          
     Orb      H-eigenvalues     Occupancies
       1 |    -0.5676859220    1.0000000000 | 
                          ------
    1276 |     0.1208724882    0.9999860662 | 
    1277 |     0.1214866706    0.9999830840 | 
    1278 |     0.1215006615    0.9999830091 | 
    1279 |     0.1215021268    0.9999830012 | 
    1280 |     0.1221310814    0.9999792666 | 
                 - Gap at zero temperature -
    1281 |     0.1925940121    0.0000104731 | 
    1282 |     0.1926004674    0.0000104518 | 
    1283 |     0.1926160337    0.0000104005 | 
    1284 |     0.1927495735    0.0000099711 | 
    1285 |     0.1927532772    0.0000099594 | 
                          ------
    2560 |     0.9904176507    0.0000000000 | 

                       |  Abs_value |  Threshold | Converged
     Delta_Free_energy |   3.65E+03 |   1.00E-06 |        No
     Delta_Energy      |   3.65E+03 |   1.00E-04 |        No
     Delta_Entropy     |   2.59E-05 |   1.00E-04 |       Yes
     Commutator        |   3.98E-05 |   1.00E-05 |        No
     Delta_Fermi_level |   1.56E-01 |   1.00E-03 |        No

  Line search of the free energy minimum:
  Step_type        Step             Free_energy   Predicted_free_energy
.   Initial    0.000000    -3653.99118376700017
.    Trial1    0.381966    -3653.99290034802925
.    Trial2    0.618034    -3653.99332231869994
. Quadratic    0.704084    -3653.99335545677741    -3653.99335474556528

--------------------------------------------------------------------------------
  Iter                              Commutator    Free_energy(A=E-TS)     DeltaA
#    1                          0.000020918940   -3653.99335545677741  -2.17E-03

Step                       =       0.704083607011
Energy                     =   -3653.993329997315
Entropy (-TS)              =      -0.000025459648
Free energy (A=E-TS)       =   -3653.993355456777
Est. 0K Energy 0.5*(E+A)   =   -3653.993342727046
Residual Non-orthogonality =       0.000000000000
Residual N_electrons       =       0.000000000186

Spin          Integrated_Ne            Fermi_level     Delta_Fermi_level
   1      2559.999999998798         0.154784748736             -1.50E-03

                           Spin 1          
     Orb      H-eigenvalues     Occupancies
       1 |    -0.5717104802    1.0000000000 | 
                          ------
    1276 |     0.1193937792    0.9999859880 | 
    1277 |     0.1198246128    0.9999839460 | 
    1278 |     0.1198422470    0.9999838564 | 
    1279 |     0.1200158994    0.9999829464 | 
    1280 |     0.1204648024    0.9999803494 | 
                 - Gap at zero temperature -
    1281 |     0.1910765359    0.0000105430 | 
    1282 |     0.1910820973    0.0000105245 | 
    1283 |     0.1911054289    0.0000104472 | 
    1284 |     0.1912433738    0.0000100019 | 
    1285 |     0.1912445487    0.0000099982 | 
                          ------
    2560 |     0.9873860885    0.0000000000 | 

                       |  Abs_value |  Threshold | Converged
     Delta_Free_energy |   2.17E-03 |   1.00E-06 |        No
     Delta_Energy      |   2.17E-03 |   1.00E-04 |        No
     Delta_Entropy     |   4.86E-07 |   1.00E-04 |       Yes
     Commutator        |   2.09E-05 |   1.00E-05 |        No
     Delta_Fermi_level |   1.50E-03 |   1.00E-03 |        No

  Line search of the free energy minimum:
  Step_type        Step             Free_energy   Predicted_free_energy
.   Initial    0.000000    -3653.99335545677741
.    Trial1    0.704084    -3653.99220604581706
.    Trial2    0.268936    -3653.99376303040754
. Quadratic    0.239212    -3653.99376949032194    -3653.99376942200934

--------------------------------------------------------------------------------
  Iter                              Commutator    Free_energy(A=E-TS)     DeltaA
#    2                          0.000009574269   -3653.99376949032194  -4.14E-04

Step                       =       0.239212089467
Energy                     =   -3653.993744089426
Entropy (-TS)              =      -0.000025400978
Free energy (A=E-TS)       =   -3653.993769490322
Est. 0K Energy 0.5*(E+A)   =   -3653.993756789874
Residual Non-orthogonality =       0.000000000000
Residual N_electrons       =       0.000000000082

Spin          Integrated_Ne            Fermi_level     Delta_Fermi_level
   1      2559.999999999468         0.154642188763             -1.43E-04

                           Spin 1          
     Orb      H-eigenvalues     Occupancies
       1 |    -0.5721117759    1.0000000000 | 
                          ------
    1276 |     0.1192049263    0.9999861914 | 
    1277 |     0.1197029462    0.9999838398 | 
    1278 |     0.1197201511    0.9999837517 | 
    1279 |     0.1198264346    0.9999831972 | 
    1280 |     0.1203421974    0.9999802252 | 
                 - Gap at zero temperature -
    1281 |     0.1909640889    0.0000104432 | 
    1282 |     0.1909789123    0.0000103944 | 
    1283 |     0.1909974206    0.0000103339 | 
    1284 |     0.1911376704    0.0000098862 | 
    1285 |     0.1911400169    0.0000098789 | 
                          ------
    2560 |     0.9870770325    0.0000000000 | 

                       |  Abs_value |  Threshold | Converged
     Delta_Free_energy |   4.14E-04 |   1.00E-06 |        No
     Delta_Energy      |   4.14E-04 |   1.00E-04 |        No
     Delta_Entropy     |   5.87E-08 |   1.00E-04 |       Yes
     Commutator        |   9.57E-06 |   1.00E-05 |       Yes
     Delta_Fermi_level |   1.43E-04 |   1.00E-03 |       Yes

  Line search of the free energy minimum:
  Step_type        Step             Free_energy   Predicted_free_energy
.   Initial    0.000000    -3653.99376949032194
.    Trial1    0.239212    -3653.99384387876762
.    Trial2    0.529807    -3653.99385722824900
. Quadratic    0.430425    -3653.99386216074845    -3653.99386216905759

--------------------------------------------------------------------------------
  Iter                              Commutator    Free_energy(A=E-TS)     DeltaA
#    3                          0.000006234706   -3653.99386216074845  -9.27E-05

Step                       =       0.430425411959
Energy                     =   -3653.993836842759
Entropy (-TS)              =      -0.000025317713
Free energy (A=E-TS)       =   -3653.993862160748
Est. 0K Energy 0.5*(E+A)   =   -3653.993849501754
Residual Non-orthogonality =       0.000000000000
Residual N_electrons       =      -0.000000000276

Spin          Integrated_Ne            Fermi_level     Delta_Fermi_level
   1      2560.000000001790         0.154444993375             -1.97E-04

                           Spin 1          
     Orb      H-eigenvalues     Occupancies
       1 |    -0.5726509140    1.0000000000 | 
                          ------
    1276 |     0.1189731841    0.9999863412 | 
    1277 |     0.1195091284    0.9999838225 | 
    1278 |     0.1195259465    0.9999837364 | 
    1279 |     0.1195941861    0.9999833821 | 
    1280 |     0.1201475438    0.9999802093 | 
                 - Gap at zero temperature -
    1281 |     0.1907868822    0.0000103775 | 
    1282 |     0.1908131090    0.0000102919 | 
    1283 |     0.1908258246    0.0000102507 | 
    1284 |     0.1909666983    0.0000098047 | 
    1285 |     0.1909735277    0.0000097835 | 
                          ------
    2560 |     0.9866799755    0.0000000000 | 

                       |  Abs_value |  Threshold | Converged
     Delta_Free_energy |   9.27E-05 |   1.00E-06 |        No
     Delta_Energy      |   9.28E-05 |   1.00E-04 |       Yes
     Delta_Entropy     |   8.33E-08 |   1.00E-04 |       Yes
     Commutator        |   6.23E-06 |   1.00E-05 |       Yes
     Delta_Fermi_level |   1.97E-04 |   1.00E-03 |       Yes

  Line search of the free energy minimum:
  Step_type        Step             Free_energy   Predicted_free_energy
.   Initial    0.000000    -3653.99386216074845
.    Trial1    0.430425    -3653.99388198742645
.    Trial2    0.647984    -3653.99382169741875
. Quadratic    0.261391    -3653.99389624838113    -3653.99389623817842

--------------------------------------------------------------------------------
  Iter                              Commutator    Free_energy(A=E-TS)     DeltaA
#    4                          0.000003853427   -3653.99389624838113  -3.41E-05

Step                       =       0.261390768646
Energy                     =   -3653.993870960567
[...]
 C   275 -- C   555       -0.10      5.37000
 C   274 -- C   554       -0.10      5.37000
 C   273 -- C   553       -0.10      5.37000
 C   272 -- C   552       -0.10      5.37000
 C   271 -- C   551       -0.10      5.37000
 C   270 -- C   550       -0.10      5.37000
 C   269 -- C   549       -0.10      5.37000
 C   268 -- C   548       -0.10      5.37000
 C   267 -- C   547       -0.10      5.37000
 C   266 -- C   546       -0.10      5.37000
 C   130 -- C   465       -0.10      5.37000
 C   129 -- C   464       -0.10      5.37000
 C   128 -- C   463       -0.10      5.37000
 C   127 -- C   462       -0.10      5.37000
 C   126 -- C   461       -0.10      5.37000
 C   240 -- C   525       -0.10      5.37000
 C   239 -- C   524       -0.10      5.37000
 C   238 -- C   523       -0.10      5.37000
 C   237 -- C   522       -0.10      5.37000
 C   236 -- C   521       -0.10      5.37000
 C    23 -- C   478       -0.10      5.37202
 C    49 -- C   469       -0.10      5.37202
 C    48 -- C   468       -0.10      5.37202
 C    47 -- C   467       -0.10      5.37202
 C    22 -- C   477       -0.10      5.37202
 C    46 -- C   466       -0.10      5.37202
 C    21 -- C   476       -0.10      5.37202
 C    25 -- C   480       -0.10      5.37202
 C    24 -- C   479       -0.10      5.37202
 C    50 -- C   470       -0.10      5.37202
 C    24 -- C   449       -0.10      5.37202
 C     6 -- C   416       -0.10      5.37202
 C    23 -- C   448       -0.10      5.37202
 C    22 -- C   447       -0.10      5.37202
 C    10 -- C   470       -0.10      5.37202
 C     5 -- C   450       -0.10      5.37202
 C    21 -- C   446       -0.10      5.37202
 C    10 -- C   420       -0.10      5.37202
 C     9 -- C   469       -0.10      5.37202
 C     9 -- C   419       -0.10      5.37202
 C     8 -- C   468       -0.10      5.37202
 C     4 -- C   449       -0.10      5.37202
 C     8 -- C   418       -0.10      5.37202
 C     2 -- C   447       -0.10      5.37202
 C     7 -- C   467       -0.10      5.37202
 C     7 -- C   417       -0.10      5.37202
 C     1 -- C   446       -0.10      5.37202
 C     6 -- C   466       -0.10      5.37202
 C    25 -- C   450       -0.10      5.37202
 C     3 -- C   448       -0.10      5.37202
 C   285 -- C   580       -0.10      5.37202
 C   284 -- C   579       -0.10      5.37202
 C   283 -- C   578       -0.10      5.37202
 C   282 -- C   577       -0.10      5.37202
 C   281 -- C   576       -0.10      5.37202
 C   260 -- C   605       -0.10      5.37202
 C   259 -- C   604       -0.10      5.37202
 C   258 -- C   603       -0.10      5.37202
 C   257 -- C   602       -0.10      5.37202
 C   256 -- C   601       -0.10      5.37202
 C   219 -- C   569       -0.10      5.37202
 C   218 -- C   568       -0.10      5.37202
 C   217 -- C   567       -0.10      5.37202
 C   216 -- C   566       -0.10      5.37202
 C    11 -- C   331       -0.10      5.37202
 C   205 -- C   550       -0.10      5.37202
 C   204 -- C   549       -0.10      5.37202
 C   203 -- C   548       -0.10      5.37202
 C   202 -- C   547       -0.10      5.37202
 C   201 -- C   546       -0.10      5.37202
 C    15 -- C   335       -0.10      5.37202
 C    30 -- C   355       -0.10      5.37202
 C    30 -- C   325       -0.10      5.37202
 C    14 -- C   334       -0.10      5.37202
 C    29 -- C   354       -0.10      5.37202
 C    29 -- C   324       -0.10      5.37202
 C   260 -- C   550       -0.10      5.37202
 C   259 -- C   549       -0.10      5.37202
 C    28 -- C   353       -0.10      5.37202
 C   258 -- C   548       -0.10      5.37202
 C   257 -- C   547       -0.10      5.37202
 C   256 -- C   546       -0.10      5.37202
 C    28 -- C   323       -0.10      5.37202
 C    27 -- C   352       -0.10      5.37202
 C    13 -- C   333       -0.10      5.37202
 C   250 -- C   540       -0.10      5.37202
 C   249 -- C   539       -0.10      5.37202
 C   248 -- C   538       -0.10      5.37202
 C   247 -- C   537       -0.10      5.37202
 C   246 -- C   536       -0.10      5.37202
 C    27 -- C   322       -0.10      5.37202
 C    26 -- C   351       -0.10      5.37202
 C    55 -- C   335       -0.10      5.37202
 C    26 -- C   321       -0.10      5.37202
 C    54 -- C   334       -0.10      5.37202
 C    12 -- C   332       -0.10      5.37202
 C    53 -- C   333       -0.10      5.37202
 C   230 -- C   580       -0.10      5.37202
 C   230 -- C   525       -0.10      5.37202
 C   229 -- C   579       -0.10      5.37202
 C   229 -- C   524       -0.10      5.37202
 C   228 -- C   578       -0.10      5.37202
 C    52 -- C   332       -0.10      5.37202
 C   228 -- C   523       -0.10      5.37202
 C   227 -- C   577       -0.10      5.37202
 C   227 -- C   522       -0.10      5.37202
 C   226 -- C   576       -0.10      5.37202
 C   226 -- C   521       -0.10      5.37202
 C    51 -- C   331       -0.10      5.37202
 C   220 -- C   570       -0.10      5.37202
 C   220 -- C   515       -0.10      5.37202
 C   219 -- C   514       -0.10      5.37202
 C   218 -- C   513       -0.10      5.37202
 C   217 -- C   512       -0.10      5.37202
 C   216 -- C   511       -0.10      5.37202
 C    95 -- C   425       -0.10      5.37202
 C    95 -- C   365       -0.10      5.37202
 C    94 -- C   424       -0.10      5.37202
 C    94 -- C   364       -0.10      5.37202
 C    93 -- C   423       -0.10      5.37202
 C   195 -- C   540       -0.10      5.37202
 C   195 -- C   500       -0.10      5.37202
 C    93 -- C   363       -0.10      5.37202
 C   194 -- C   539       -0.10      5.37202
 C    92 -- C   422       -0.10      5.37202
 C   194 -- C   499       -0.10      5.37202
 C   193 -- C   538       -0.10      5.37202
 C   193 -- C   498       -0.10      5.37202
 C    92 -- C   362       -0.10      5.37202
 C   192 -- C   537       -0.10      5.37202
 C    91 -- C   421       -0.10      5.37202
 C   192 -- C   497       -0.10      5.37202
 C   191 -- C   536       -0.10      5.37202
 C   191 -- C   496       -0.10      5.37202
 C    91 -- C   361       -0.10      5.37202
 C    85 -- C   355       -0.10      5.37202
 C   180 -- C   515       -0.10      5.37202
 C    40 -- C   365       -0.10      5.37202
 C    84 -- C   354       -0.10      5.37202
 C   179 -- C   514       -0.10      5.37202
 C    83 -- C   353       -0.10      5.37202
 C   178 -- C   513       -0.10      5.37202
 C   177 -- C   512       -0.10      5.37202
 C    82 -- C   352       -0.10      5.37202
 C    39 -- C   364       -0.10      5.37202
 C   176 -- C   511       -0.10      5.37202
 C    81 -- C   351       -0.10      5.37202
 C    38 -- C   363       -0.10      5.37202
 C    37 -- C   362       -0.10      5.37202
 C    36 -- C   361       -0.10      5.37202
 C    65 -- C   395       -0.10      5.37202
 C    65 -- C   345       -0.10      5.37202
 C    64 -- C   394       -0.10      5.37202
 C    64 -- C   344       -0.10      5.37202
 C    63 -- C   393       -0.10      5.37202
 C    63 -- C   343       -0.10      5.37202
 C    62 -- C   392       -0.10      5.37202
 C    62 -- C   342       -0.10      5.37202
 C    61 -- C   391       -0.10      5.37202
 C    61 -- C   341       -0.10      5.37202
 C   120 -- C   395       -0.10      5.37202
 C    55 -- C   385       -0.10      5.37202
 C   119 -- C   394       -0.10      5.37202
 C   118 -- C   393       -0.10      5.37202
 C   117 -- C   392       -0.10      5.37202
 C    54 -- C   384       -0.10      5.37202
 C   116 -- C   391       -0.10      5.37202
 C    53 -- C   383       -0.10      5.37202
 C    52 -- C   382       -0.10      5.37202
 C    51 -- C   381       -0.10      5.37202
 C   150 -- C   440       -0.10      5.37202
 C   149 -- C   439       -0.10      5.37202
 C   148 -- C   438       -0.10      5.37202
 C   147 -- C   437       -0.10      5.37202
 C   146 -- C   436       -0.10      5.37202
 C   135 -- C   460       -0.10      5.37202
 C   134 -- C   459       -0.10      5.37202
 C   133 -- C   458       -0.10      5.37202
 C   132 -- C   457       -0.10      5.37202
 C   131 -- C   456       -0.10      5.37202
 C   106 -- C   436       -0.10      5.37202
 C   106 -- C   376       -0.10      5.37202
 C    80 -- C   410       -0.10      5.37202
 C    79 -- C   409       -0.10      5.37202
 C    78 -- C   408       -0.10      5.37202
 C    77 -- C   407       -0.10      5.37202
 C    76 -- C   406       -0.10      5.37202
 C   135 -- C   410       -0.10      5.37202
 C   134 -- C   409       -0.10      5.37202
 C   133 -- C   408       -0.10      5.37202
 C   132 -- C   407       -0.10      5.37202
 C   131 -- C   406       -0.10      5.37202
 C   110 -- C   440       -0.10      5.37202
 C   110 -- C   380       -0.10      5.37202
 C   109 -- C   439       -0.10      5.37202
 C   109 -- C   379       -0.10      5.37202
 C   108 -- C   438       -0.10      5.37202
 C   108 -- C   378       -0.10      5.37202
 C   107 -- C   437       -0.10      5.37202
 C   107 -- C   377       -0.10      5.37202
 C   215 -- C   635       -0.10      5.38000
 C   214 -- C   634       -0.10      5.38000
 C   213 -- C   633       -0.10      5.38000
 C   212 -- C   632       -0.10      5.38000
 C   211 -- C   631       -0.10      5.38000
 C   190 -- C   620       -0.10      5.38000
 C   189 -- C   619       -0.10      5.38000
 C   188 -- C   618       -0.10      5.38000
 C   187 -- C   617       -0.10      5.38000
 C   186 -- C   616       -0.10      5.38000
 C   175 -- C   595       -0.10      5.38000
 C   174 -- C   594       -0.10      5.38000
 C   173 -- C   593       -0.10      5.38000
 C   172 -- C   592       -0.10      5.38000
 C   171 -- C   591       -0.10      5.38000
 C   245 -- C   640       -0.10      5.38000
 C   244 -- C   639       -0.10      5.38000
 C   243 -- C   638       -0.10      5.38000
 C   242 -- C   637       -0.10      5.38000
 C   241 -- C   636       -0.10      5.38000
==================================================


=================== Orbital energy and occupancy information ===================

      Total number of orbitals:    2560
        Occupancy sum (kernel):    1279.999999999
   Occupancy sum (eigenvalues):    1279.999999999
                 HOMO-LUMO gap:       0.067221032 Eh
                 Mid-gap level:       0.213682009 Eh

                        Orbital | Energy (Eh) | Occupancy
                            1    -0.508526073   1.0000000
                        .......   ...........   .........
                         1271     0.176097755   0.9999892
                         1272     0.176108818   0.9999892
                         1273     0.176569249   0.9999875
                         1274     0.176580326   0.9999874
                         1275     0.178720848   0.9999753
                         1276     0.178726026   0.9999753
                         1277     0.179191495   0.9999714
                         1278     0.179196645   0.9999713
                         1279     0.179602600   0.9999674
                         1280     0.180071493   0.9999622
                        ....... -- gap at 0K -- .........
                         1281     0.247292525   0.0000159
                         1282     0.247315016   0.0000158
                         1283     0.247517961   0.0000149
                         1284     0.247530385   0.0000148
                         1285     0.247545654   0.0000147
                         1286     0.247568198   0.0000146
                         1287     0.247705220   0.0000140
                         1288     0.247780360   0.0000137
                         1289     0.247792605   0.0000136
                         1290     0.247963735   0.0000129
                        .......   ...........   .........
                         2560     1.107730778   0.0000000

================================================================================

===================== Writing canonical molecular orbitals =====================
| Orbital  Energy (eV)  Norm     |
| HOMO      4.89999465  1.000000 | Writing "3.7832992_GO_manual_4x64graphite_HOMO.cube" ... done
Writing "3.7832992_GO_manual_4x64graphite_HOMO.dx" ... done
| LUMO      6.72917200  1.000000 | Writing "3.7832992_GO_manual_4x64graphite_LUMO.cube" ... done
Writing "3.7832992_GO_manual_4x64graphite_LUMO.dx" ... done
================================================================================
 
===================== Density of States (DOS) calculation ======================
Writing "3.7832992_GO_manual_4x64graphite_DOS.txt" ...  done
================================================================================
 
Writing bands to file "3.7832992_GO_manual_4x64graphite.val_bands" ... done
 
================ Projected Density of States (pDOS) calculation ================
 
Constructing AM resolved functions  ...... done
Writing NGWF plot files in formats: CUBE DX ...  done
 
Performing overlap integrals ...  done
 
Computing pDOS weights ...  done
 
All bands spilling parameter =   3.03 %
Occupancy-weighted spilling parameter =   0.97 %
 
 => Outputting data for OptaDOS <=
 
Writing pDOS weights to file "3.7832992_GO_manual_4x64graphite.val_pdos_bin" ... done
 
Writing band gradients to file "3.7832992_GO_manual_4x64graphite.val_dome_bin" ... done
 
Writing Castep output cell file to "3.7832992_GO_manual_4x64graphite-out.cell" ... done
 
 => Computing Gaussian smeared pDOS <= 
Writing "3.7832992_GO_manual_4x64graphite_PDOS.txt" ...  done
 
 => Computing Occupancy-weighted Gaussian smeared pDOS <= 
Writing "3.7832992_GO_manual_4x64graphite_occ_PDOS.txt" ...  done
  => Band centres: 
 S band centre of group 1:  -13.822045 eV
 P band centre of group 1:   -6.669815 eV
  Band centres done. <=
  => Integrated number of electrons in each AM band: 
 S num electrons of group 1:  577.125076
 P num electrons of group 1: 1958.076948
  Integrated number of electrons done. <=
================================================================================

------------------------------ TIMING INFORMATION ------------------------------
AVERAGE TIME:    3157.019s on     40 node(s)                                    
TOTAL TIME:      3157.019s on     40 node(s)                                    
================= AVERAGE TIMINGS FROM ALL NODES (CUMULATIVE) ==================
|| TAG                                    #calls    cpu time   %total  Gflops ||
|| work_imbalance                       :     1        0.00s   0.000%  ------ ||
|| paw_tcore_hartree_on_grid            :     1        0.00s   0.000%  ------ ||
|| paw_tcore_density                    :     1        0.01s   0.000%  ------ ||
|| paw_sphere_density_on_grid           :     1        0.01s   0.000%  ------ ||
|| sparse_set_to_garbage                :   135        0.02s   0.001%  ------ ||
|| paw_dij_hartree                      :   285        0.04s   0.001%  ------ ||
|| pseudo_make_structure_factor         :     1        0.06s   0.002%  ------ ||
|| basis_extract_function_from_box      :  1536        0.06s   0.002%  ------ ||
|| paw_species_calc_proj_prec_mat       :     1        0.12s   0.004%  ------ ||
|| paw_dataset_init                     :     1        0.15s   0.005%  ------ ||
|| density_init_guess_real              :     1        0.18s   0.006%  ------ ||
|| ngwfs_initialise_from_radial         :     2        0.67s   0.021%  ------ ||
|| restart_kernel_write                 :    13        0.72s   0.023%  ------ ||
|| sparse_init                          :     1        0.92s   0.029%  ------ ||
|| dense_normal_eigensolve              :     1        1.02s   0.032%  ------ ||
|| hartree_on_grid                      :   215        1.43s   0.045%  ------ ||
|| projectors_init_fftbox_recip         :   121        2.44s   0.077%  ------ ||
|| ewald_calculate_energy               :     1        3.29s   0.104%  ------ ||
|| fourier_apply_box_pair               :  2272        3.79s   0.120% 556.093 ||
|| basis_copy_function_to_box           : 20352        4.27s   0.135%  ------ ||
|| augmentation_screen_dij              :   220        4.74s   0.150%  ------ ||
|| sparse_embed_hotelling_invert_embed  :    23        6.44s   0.204%  ------ ||
|| sw_init                              :     1        6.74s   0.213%  ------ ||
|| ngwf_gradient_coeffs                 :    12        8.41s   0.267%  ------ ||
|| sparse_trace                         :  2584       12.02s   0.381%  ------ ||
|| cell_grid_extract_box_real           :  8588       16.31s   0.517%  ------ ||
|| fourier_apply_cell_backward          :  6636       17.44s   0.552%  50.818 ||
|| paw_dij_xc                           :   285       18.74s   0.594%  ------ ||
|| fourier_apply_cell_forward           :  6207       18.77s   0.595%  44.150 ||
|| cell_grid_deposit_box_real           : 27696       19.72s   0.624%  ------ ||
|| aug_nonlocal_mat                     :   273       27.92s   0.884%  ------ ||
|| augmentation_density_on_grid         :   215       38.17s   1.209%  ------ ||
|| density_fftbox_deposit_to_cell       : 13760       41.81s   1.324%  ------ ||
|| function_ops_brappd_ketppd           :    48       47.23s   1.496%  ------ ||
|| hamiltonian_energy_components        :     3       47.38s   1.501%  ------ ||
|| eigenstates_pdos                     :     1       53.69s   1.701%  ------ ||
|| projectors_func_ovlp_box             :    24       53.98s   1.710%  ------ ||
|| eigenstates_calculate                :     1       58.14s   1.841%  ------ ||
|| nlxc_vdw_energy                      :   428       72.53s   2.297%  ------ ||
|| xc_energy_potential                  :   214       74.75s   2.368%  ------ ||
|| integrals_kinetic                    :    23       75.67s   2.397%  ------ ||
|| dense_eigensolve                     :   188       95.58s   3.028%  ------ ||
|| sparse_product                       :  2609      104.95s   3.324%  ------ ||
|| potential_apply_to_ngwf_batch        :   268      105.55s   3.343%  ------ ||
|| properties_calculate                 :     1      106.03s   3.359%  ------ ||
|| restart_ngwfs_tightbox_output        :    11      123.33s   3.907%  ------ ||
|| basis_dot_function_with_box          : 6.224M     170.51s   5.401%  ------ ||
|| fourier_apply_box                    : 64112      199.75s   6.327% 975.639 ||
|| edft_diag_ngwf_ham                   :   187      210.73s   6.675%  ------ ||
|| projectors_gradient_batch            :    48      216.04s   6.843%  ------ ||
|| integrals_locpot_mat_els_batch       :   268      229.34s   7.264%  ------ ||
|| density_fftbox_interpolate_multiply  : 13760      264.67s   8.384%  ------ ||
|| projectors_grad_precond_batch        :    48      302.44s   9.580%  ------ ||
|| integrals_locpot_dbl_grid            :    67      336.07s  10.645%  ------ ||
|| density_batch_interp_deposit         :   860      338.42s  10.720%  ------ ||
|| edft_apply_smearing_operator         :   187      408.72s  12.946%  ------ ||
|| basis_add_function_to_box            : 17.64M     466.83s  14.787%  ------ ||
|| ngwf_gradient_build_batch            :    48      555.28s  17.589%  ------ ||
|| density_batch_row_sums               :   860      663.97s  21.032%  ------ ||
|| ngwf_gradient_batch                  :    48      737.11s  23.348%  ------ ||
|| ngwf_gradient_lnv                    :    12      763.03s  24.169%  ------ ||
|| density_on_dbl_grid                  :   215     1014.11s  32.122%  ------ ||
|| hamiltonian_lhxc_calculate           :   210     1103.31s  34.948%  ------ ||
|| edft_calculate                       :    12     1828.56s  57.920%  ------ ||
|| ngwf_cg_optimise                     :     1     3024.54s  95.804%  ------ ||
|| total_time                           :     1     3157.02s 100.000%  ------ ||
================================================================================
Overhead of generating timer report: 
- 0 ms averaging over threads,
- 6 ms ensuring consistency across MPI ranks,
- 0 ms printing in order.

Job completed: 29-02-2020 12:15 (-0000)

