 +---------------------------------------------------------------+
 |                                                               |
 |        ####### #     # ####### ####### ####### ######         |
 |        #     # ##    # #          #    #       #     #        |
 |        #     # # #   # #          #    #       #     #        |
 |        #     # #  #  # #####      #    #####   ######         |
 |        #     # #   # # #          #    #       #              |
 |        #     # #    ## #          #    #       #              |
 |        ####### #     # #######    #    ####### #              |
 |                                                               |
 |        Linear-Scaling Ab Initio Total Energy Program          |
 |                                                               |
 |          Release for academic collaborators of ODG            |
 |                                             Version 5.3.2.12  |
 |                                                               |
 +---------------------------------------------------------------+
 |                                                               |
 |  Authors:                                                     |
 |  Jacek Dziedzic, Peter D. Haynes, Nicholas D. M. Hine,        |
 |  Arash. A. Mostofi, Mike C. Payne and Chris-Kriton Skylaris   |
 |                                                               |
 |  Contributors:                                                |
 |  J. Aarons, L. Andrinopoulos, P. W. Avraam, R. A. Bell,       |
 |  A. Bhandari, G. A. Bramley, R. J. Charlton, S. J. Clark,     |
 |  R. J. Clements, G. C. Constantinescu, F. Corsetti,           |
 |  N. Corsini, O. Dieguez, S. M. M. Dubois, K. K. B. Duff,      |
 |  J. M. Escartin, A. Greco, H. Helal, Q. O. Hill, L. P. Lee,   |
 |  J.-H. Li, E. B. Linscott, G. Moynihan, D. D. O`Regan,        |
 |  O. K. Okan, M. J. S. Phipps, C. J. Pickard,                  |
 |  J. C. A. Prentice, M. I. J. Probert, L. E. Ratcliff,         |
 |  M. Robinson, A. Ruiz Serrano, J. S. Spencer, E. W. Tait,     |
 |  G. Teobaldi, D. Turban, V. Vitale, K. A. Wilkinson,          |
 |  C. Weber, J. C. Womack, N. Yeung and T. J. Zuehlsdorff       |
 |                                                               |
 |                                   Copyright (c) 2004-2020     |
 |                                                               |
 |  Please cite:                                                 |
 |  "Introducing ONETEP: Linear-scaling density functional       |
 |   simulations on parallel computers".                         |
 |   C.-K. Skylaris, P. D. Haynes, A. A. Mostofi, M. C. Payne.   |
 |   J. Chem. Phys. 122 084119 (2005).                           |
 |                                                               |
 |          in all publications arising from your use of ONETEP. |
 |                                                               |
 +---------------------------------------------------------------+
 |                                                               |
 |   ONETEP is based on developments described in the following  |
 |   publications:                                               |
 |                                                               |
 |  "Nonorthogonal generalized Wannier function pseudopotential  |
 |   plane-wave method".                                         |
 |   C.-K. Skylaris, A. A. Mostofi, P. D. Haynes, O. Dieguez,    |
 |   M. C. Payne.                                                |
 |   Phys. Rev. B 66 035119 (2002).                              |
 |                                                               |
 |  "Preconditioned iterative minimization for linear-scaling    |
 |   electronic structure calculations".                         |
 |   A. A. Mostofi, P. D. Haynes, C.-K. Skylaris, M. C. Payne.   |
 |   J. Chem. Phys. 119(17), pp.8842-8848 (2003).                |
 |                                                               |
 |  "Total-energy calculations on a real space grid with         |
 |   localized functions and a plane-wave basis".                |
 |   A. A. Mostofi, C.-K. Skylaris, P. D. Haynes, M. C. Payne.   |
 |   Comput. Phys. Commun. 147, pp.788-802 (2002).               |
 |                                                               |
 |  "Accurate kinetic energy evaluation in electronic structure  |
 |   calculations with localized functions on real space grids"  |
 |   C.-K. Skylaris, A. A. Mostofi, P. D. Haynes, C. J. Pickard, |
 |   M. C. Payne.                                                |
 |   Comput. Phys. Commun. 140, pp.315-322 (2001).               |
 |                                                               |
 |  "Accurate ionic forces and geometry optimization in linear-  |
 |   scaling density-functional theory with local orbitals"      |
 |   N. D. M. Hine, M. Robinson, P. D. Haynes, C.-K. Skylaris,   |
 |   M. C. Payne, and A. A. Mostofi.                             |
 |   Phys. Rev. B 83 195102 (2011).                              |
 |                                                               |
 +---------------------------------------------------------------+

Job started: 29-02-2020 10:42 (-0000)
 
Reading parameters from file "3.890624_GO_manual_4x64graphite.dat" ...

WARNING: "cutoff_energy" not specified, but "psinc_spacing" specified.
         Using the latter to set the KE cutoff energy to  732.32021eV,
         thus *overriding* the default.

... done

If your calculation crashes here, before "Checking processes and threads..."
is displayed, then your stack size is insufficient.
If so, use "ulimit -s unlimited" at runtime.
You can disable this check with "check_stack_size F".

Checking processes and threads...
   Determining the default number of threads...
      No default threads set at compilation time: defaulting to 1.
      OpenMP library call suggests 4 threads.
      Hybrid MPI-OpenMP compilation detected.
      Number of MPI processes > 1.
      OMP_NUM_THREADS environment variable present and
      its value matches the one obtained from the OpenMP library call.
      Using this value as default.
      Default threads: 4
      Default applies to threads_max and threads_num_fftboxes.
      Settings in the input file override this default.
   ... done

   Running with 40 MPI processes.
   There are 10 MPI processes running on the same node as the root process.
   Each MPI process is using: 
               1 threads for simulation cell FFTs.
               1 threads for parallel FFT box operations.
               4 threads for loops over batched FFT box operations.
               4 threads in other parallel regions.
... done

Basic input checks...
Resetting ngwf_cg_rotate to TRUE for EDFT calculations
... done

Reading geometry and species blocks from file "3.890624_GO_manual_4x64graphite.dat" ...
    
  PSINC grid spacing along a1 set to   0.511215680000a0 from input file.
  PSINC grid spacing along a2 set to   0.531284090000a0 from input file.
  PSINC grid spacing along a3 set to   0.507050270000a0 from input file.
  Number of PPD points along a3 set to 1.  This is 
  the default value, it may have been provided also in the input file.
... done
 Writing xyz coordinates to file "3.890624_GO_manual_4x64graphite.xyz" ... done


--------------------------------------------------------------------------------
---------------------------------- INPUT FILE ----------------------------------
--------------------------------------------------------------------------------

task : singlepoint                                                              
do_properties : true                                                            
dx_format T                                                                     
edft T                                                                          
output_detail VERBOSE                                                           
write_xyz T                                                                     
xc_functional VDWDF                                                             
PSINC_SPACING 0.51121568 0.53128409 0.50705027                                  
paw T                                                                           
pdos_max_l = 2                                                                  
dos_smear  0.1 eV                                                               
popn_calculate T                                                                
PDOS_PSEUDOATOMIC T                                                             
PDOS_REDUCE_SWS F                                                               
PDOS_CONSTRUCT_BASIS F                                                          
PDOS_LOWDIN T                                                                   
PDOS_ORTH_ATOM_BLOCKS F                                                         
PDOS_LCAO_OPTIMIZE F                                                            
pdos_optados_output T                                                           
homo_plot 0                                                                     
lumo_plot 0                                                                     
homo_dens_plot -1                                                               
lumo_dens_plot -1                                                               
%BLOCK SPECIES                                                                  
C C 6 4 9.0                                                                     
%ENDBLOCK SPECIES                                                               
%BLOCK SPECIES_POT                                                              
C "~/pp/paw/c_pbe_abinit.paw"                                                   
%ENDBLOCK SPECIES_POT                                                           
%BLOCK SPECIES_ATOMIC_SET                                                       
C "SOLVE conf=2s2 2p2"                                                          
%ENDBLOCK SPECIES_ATOMIC_SET                                                    
%BLOCK LATTICE_CART                                                             
32.21  0.00  0.00                                                               
0.00 18.59  0.00                                                                
0.00  0.00 73.52                                                                
%ENDBLOCK LATTICE_CART                                                          
%BLOCK POSITIONS_ABS                                                            
C  0.00  0.00  3.68                                                             
C  0.00  0.00 18.38                                                             
C  0.00  0.00 33.09                                                             
C  0.00  0.00 47.79                                                             
C  0.00  0.00 62.49                                                             
C  0.00  4.65  3.68                                                             
C  0.00  4.65 18.38                                                             
C  0.00  4.65 33.09                                                             
C  0.00  4.65 47.79                                                             
C  0.00  4.65 62.49                                                             
C  4.03  2.32  3.68                                                             
C  4.03  2.32 18.38                                                             
C  4.03  2.32 33.09                                                             
C  4.03  2.32 47.79                                                             
C  4.03  2.32 62.49                                                             
C  8.05  0.00  3.68                                                             
C  8.05  0.00 18.38                                                             
C  8.05  0.00 33.09                                                             
C  8.05  0.00 47.79                                                             
C  8.05  0.00 62.49                                                             
C  0.00  9.30  3.68                                                             
C  0.00  9.30 18.38                                                             
C  0.00  9.30 33.09                                                             
C  0.00  9.30 47.79                                                             
C  0.00  9.30 62.49                                                             
C  4.03  6.97  3.68                                                             
C  4.03  6.97 18.38                                                             
C  4.03  6.97 33.09                                                             
C  4.03  6.97 47.79                                                             
C  4.03  6.97 62.49                                                             
C  8.05  4.65  3.68                                                             
C  8.05  4.65 18.38                                                             
C  8.05  4.65 33.09                                                             
C  8.05  4.65 47.79                                                             
C  8.05  4.65 62.49                                                             
C 12.08  2.32  3.68                                                             
C 12.08  2.32 18.38                                                             
C 12.08  2.32 33.09                                                             
C 12.08  2.32 47.79                                                             
C 12.08  2.32 62.49                                                             
C 16.10  0.00  3.68                                                             
C 16.10  0.00 18.38                                                             
C 16.10  0.00 33.09                                                             
C 16.10  0.00 47.79                                                             
C 16.10  0.00 62.49                                                             
C  0.00 13.95  3.68                                                             
C  0.00 13.95 18.38                                                             
C  0.00 13.95 33.09                                                             
C  0.00 13.95 47.79                                                             
C  0.00 13.95 62.49                                                             
C  4.03 11.62  3.68                                                             
C  4.03 11.62 18.38                                                             
C  4.03 11.62 33.09                                                             
C  4.03 11.62 47.79                                                             
C  4.03 11.62 62.49                                                             
C  8.05  9.30  3.68                                                             
C  8.05  9.30 18.38                                                             
C  8.05  9.30 33.09                                                             
C  8.05  9.30 47.79                                                             
C  8.05  9.30 62.49                                                             
C 12.08  6.97  3.68                                                             
C 12.08  6.97 18.38                                                             
C 12.08  6.97 33.09                                                             
C 12.08  6.97 47.79                                                             
C 12.08  6.97 62.49                                                             
C 16.10  4.65  3.68                                                             
C 16.10  4.65 18.38                                                             
C 16.10  4.65 33.09                                                             
C 16.10  4.65 47.79                                                             
C 16.10  4.65 62.49                                                             
C 20.13  2.32  3.68                                                             
C 20.13  2.32 18.38                                                             
C 20.13  2.32 33.09                                                             
C 20.13  2.32 47.79                                                             
C 20.13  2.32 62.49                                                             
C 24.16  0.00  3.68                                                             
C 24.16  0.00 18.38                                                             
C 24.16  0.00 33.09                                                             
C 24.16  0.00 47.79                                                             
C 24.16  0.00 62.49                                                             
C  4.03 16.27  3.68                                                             
C  4.03 16.27 18.38                                                             
C  4.03 16.27 33.09                                                             
C  4.03 16.27 47.79                                                             
C  4.03 16.27 62.49                                                             
C  8.05 13.95  3.68                                                             
C  8.05 13.95 18.38                                                             
C  8.05 13.95 33.09                                                             
C  8.05 13.95 47.79                                                             
C  8.05 13.95 62.49                                                             
C 12.08 11.62  3.68                                                             
C 12.08 11.62 18.38                                                             
C 12.08 11.62 33.09                                                             
C 12.08 11.62 47.79                                                             
C 12.08 11.62 62.49                                                             
C 16.10  9.30  3.68                                                             
C 16.10  9.30 18.38                                                             
C 16.10  9.30 33.09                                                             
C 16.10  9.30 47.79                                                             
C 16.10  9.30 62.49                                                             
C 20.13  6.97  3.68                                                             
C 20.13  6.97 18.38                                                             
C 20.13  6.97 33.09                                                             
C 20.13  6.97 47.79                                                             
C 20.13  6.97 62.49                                                             
C 24.16  4.65  3.68                                                             
C 24.16  4.65 18.38                                                             
C 24.16  4.65 33.09                                                             
C 24.16  4.65 47.79                                                             
C 24.16  4.65 62.49                                                             
C 28.18  2.32  3.68                                                             
C 28.18  2.32 18.38                                                             
C 28.18  2.32 33.09                                                             
C 28.18  2.32 47.79                                                             
C 28.18  2.32 62.49                                                             
C 12.08 16.27  3.68                                                             
C 12.08 16.27 18.38                                                             
C 12.08 16.27 33.09                                                             
C 12.08 16.27 47.79                                                             
C 12.08 16.27 62.49                                                             
C 16.10 13.95  3.68                                                             
C 16.10 13.95 18.38                                                             
C 16.10 13.95 33.09                                                             
C 16.10 13.95 47.79                                                             
C 16.10 13.95 62.49                                                             
C 20.13 11.62  3.68                                                             
C 20.13 11.62 18.38                                                             
C 20.13 11.62 33.09                                                             
C 20.13 11.62 47.79                                                             
C 20.13 11.62 62.49                                                             
C 24.16  9.30  3.68                                                             
C 24.16  9.30 18.38                                                             
C 24.16  9.30 33.09                                                             
C 24.16  9.30 47.79                                                             
C 24.16  9.30 62.49                                                             
C 28.18  6.97  3.68                                                             
C 28.18  6.97 18.38                                                             
C 28.18  6.97 33.09                                                             
C 28.18  6.97 47.79                                                             
C 28.18  6.97 62.49                                                             
C 20.13 16.27  3.68                                                             
C 20.13 16.27 18.38                                                             
C 20.13 16.27 33.09                                                             
C 20.13 16.27 47.79                                                             
C 20.13 16.27 62.49                                                             
C 24.16 13.95  3.68                                                             
C 24.16 13.95 18.38                                                             
C 24.16 13.95 33.09                                                             
C 24.16 13.95 47.79                                                             
C 24.16 13.95 62.49                                                             
C 28.18 11.62  3.68                                                             
C 28.18 11.62 18.38                                                             
C 28.18 11.62 33.09                                                             
C 28.18 11.62 47.79                                                             
C 28.18 11.62 62.49                                                             
C 28.18 16.27  3.68                                                             
C 28.18 16.27 18.38                                                             
C 28.18 16.27 33.09                                                             
C 28.18 16.27 47.79                                                             
C 28.18 16.27 62.49                                                             
C  0.00  0.00 11.03                                                             
C  0.00  0.00 25.73                                                             
C  0.00  0.00 40.44                                                             
C  0.00  0.00 55.14                                                             
C  0.00  0.00 69.85                                                             
C  0.00  4.65 11.03                                                             
C  0.00  4.65 25.73                                                             
C  0.00  4.65 40.44                                                             
C  0.00  4.65 55.14                                                             
C  0.00  4.65 69.85                                                             
C  4.03  2.32 11.03                                                             
C  4.03  2.32 25.73                                                             
C  4.03  2.32 40.44                                                             
C  4.03  2.32 55.14                                                             
C  4.03  2.32 69.85                                                             
C  8.05  0.00 11.03                                                             
C  8.05  0.00 25.73                                                             
C  8.05  0.00 40.44                                                             
C  8.05  0.00 55.14                                                             
C  8.05  0.00 69.85                                                             
C  0.00  9.30 11.03                                                             
C  0.00  9.30 25.73                                                             
C  0.00  9.30 40.44                                                             
C  0.00  9.30 55.14                                                             
C  0.00  9.30 69.85                                                             
C  4.03  6.97 11.03                                                             
C  4.03  6.97 25.73                                                             
C  4.03  6.97 40.44                                                             
C  4.03  6.97 55.14                                                             
C  4.03  6.97 69.85                                                             
C  8.05  4.65 11.03                                                             
C  8.05  4.65 25.73                                                             
C  8.05  4.65 40.44                                                             
C  8.05  4.65 55.14                                                             
C  8.05  4.65 69.85                                                             
C 12.08  2.32 11.03                                                             
C 12.08  2.32 25.73                                                             
C 12.08  2.32 40.44                                                             
C 12.08  2.32 55.14                                                             
C 12.08  2.32 69.85                                                             
C 16.10  0.00 11.03                                                             
C 16.10  0.00 25.73                                                             
C 16.10  0.00 40.44                                                             
C 16.10  0.00 55.14                                                             
C 16.10  0.00 69.85                                                             
C  0.00 13.95 11.03                                                             
C  0.00 13.95 25.73                                                             
C  0.00 13.95 40.44                                                             
C  0.00 13.95 55.14                                                             
C  0.00 13.95 69.85                                                             
C  4.03 11.62 11.03                                                             
C  4.03 11.62 25.73                                                             
C  4.03 11.62 40.44                                                             
C  4.03 11.62 55.14                                                             
C  4.03 11.62 69.85                                                             
C  8.05  9.30 11.03                                                             
C  8.05  9.30 25.73                                                             
C  8.05  9.30 40.44                                                             
C  8.05  9.30 55.14                                                             
C  8.05  9.30 69.85                                                             
C 12.08  6.97 11.03                                                             
C 12.08  6.97 25.73                                                             
C 12.08  6.97 40.44                                                             
C 12.08  6.97 55.14                                                             
C 12.08  6.97 69.85                                                             
C 16.10  4.65 11.03                                                             
C 16.10  4.65 25.73                                                             
C 16.10  4.65 40.44                                                             
C 16.10  4.65 55.14                                                             
C 16.10  4.65 69.85                                                             
C 20.13  2.32 11.03                                                             
C 20.13  2.32 25.73                                                             
C 20.13  2.32 40.44                                                             
C 20.13  2.32 55.14                                                             
C 20.13  2.32 69.85                                                             
C 24.16  0.00 11.03                                                             
C 24.16  0.00 25.73                                                             
C 24.16  0.00 40.44                                                             
C 24.16  0.00 55.14                                                             
C 24.16  0.00 69.85                                                             
C  4.03 16.27 11.03                                                             
C  4.03 16.27 25.73                                                             
C  4.03 16.27 40.44                                                             
C  4.03 16.27 55.14                                                             
C  4.03 16.27 69.85                                                             
C  8.05 13.95 11.03                                                             
C  8.05 13.95 25.73                                                             
C  8.05 13.95 40.44                                                             
C  8.05 13.95 55.14                                                             
C  8.05 13.95 69.85                                                             
C 12.08 11.62 11.03                                                             
C 12.08 11.62 25.73                                                             
C 12.08 11.62 40.44                                                             
C 12.08 11.62 55.14                                                             
C 12.08 11.62 69.85                                                             
C 16.10  9.30 11.03                                                             
C 16.10  9.30 25.73                                                             
C 16.10  9.30 40.44                                                             
C 16.10  9.30 55.14                                                             
C 16.10  9.30 69.85                                                             
C 20.13  6.97 11.03                                                             
C 20.13  6.97 25.73                                                             
C 20.13  6.97 40.44                                                             
C 20.13  6.97 55.14                                                             
C 20.13  6.97 69.85                                                             
C 24.16  4.65 11.03                                                             
C 24.16  4.65 25.73                                                             
C 24.16  4.65 40.44                                                             
C 24.16  4.65 55.14                                                             
C 24.16  4.65 69.85                                                             
C 28.18  2.32 11.03                                                             
C 28.18  2.32 25.73                                                             
C 28.18  2.32 40.44                                                             
C 28.18  2.32 55.14                                                             
C 28.18  2.32 69.85                                                             
C 12.08 16.27 11.03                                                             
C 12.08 16.27 25.73                                                             
C 12.08 16.27 40.44                                                             
C 12.08 16.27 55.14                                                             
C 12.08 16.27 69.85                                                             
C 16.10 13.95 11.03                                                             
C 16.10 13.95 25.73                                                             
C 16.10 13.95 40.44                                                             
C 16.10 13.95 55.14                                                             
C 16.10 13.95 69.85                                                             
C 20.13 11.62 11.03                                                             
C 20.13 11.62 25.73                                                             
C 20.13 11.62 40.44                                                             
C 20.13 11.62 55.14                                                             
C 20.13 11.62 69.85                                                             
C 24.16  9.30 11.03                                                             
C 24.16  9.30 25.73                                                             
C 24.16  9.30 40.44                                                             
C 24.16  9.30 55.14                                                             
C 24.16  9.30 69.85                                                             
C 28.18  6.97 11.03                                                             
C 28.18  6.97 25.73                                                             
C 28.18  6.97 40.44                                                             
C 28.18  6.97 55.14                                                             
C 28.18  6.97 69.85                                                             
C 20.13 16.27 11.03                                                             
C 20.13 16.27 25.73                                                             
C 20.13 16.27 40.44                                                             
C 20.13 16.27 55.14                                                             
C 20.13 16.27 69.85                                                             
C 24.16 13.95 11.03                                                             
C 24.16 13.95 25.73                                                             
C 24.16 13.95 40.44                                                             
C 24.16 13.95 55.14                                                             
C 24.16 13.95 69.85                                                             
C 28.18 11.62 11.03                                                             
C 28.18 11.62 25.73                                                             
C 28.18 11.62 40.44                                                             
C 28.18 11.62 55.14                                                             
C 28.18 11.62 69.85                                                             
C 28.18 16.27 11.03                                                             
C 28.18 16.27 25.73                                                             
C 28.18 16.27 40.44                                                             
C 28.18 16.27 55.14                                                             
C 28.18 16.27 69.85                                                             
C  1.34  2.32  3.68                                                             
C  1.34  2.32 18.38                                                             
C  1.34  2.32 33.09                                                             
C  1.34  2.32 47.79                                                             
C  1.34  2.32 62.49                                                             
C  5.37  0.00  3.68                                                             
C  5.37  0.00 18.38                                                             
C  5.37  0.00 33.09                                                             
C  5.37  0.00 47.79                                                             
C  5.37  0.00 62.49                                                             
C  1.34  6.97  3.68                                                             
C  1.34  6.97 18.38                                                             
C  1.34  6.97 33.09                                                             
C  1.34  6.97 47.79                                                             
C  1.34  6.97 62.49                                                             
C  5.37  4.65  3.68                                                             
C  5.37  4.65 18.38                                                             
C  5.37  4.65 33.09                                                             
C  5.37  4.65 47.79                                                             
C  5.37  4.65 62.49                                                             
C  9.39  2.32  3.68                                                             
C  9.39  2.32 18.38                                                             
C  9.39  2.32 33.09                                                             
C  9.39  2.32 47.79                                                             
C  9.39  2.32 62.49                                                             
C 13.42  0.00  3.68                                                             
C 13.42  0.00 18.38                                                             
C 13.42  0.00 33.09                                                             
C 13.42  0.00 47.79                                                             
C 13.42  0.00 62.49                                                             
C  1.34 11.62  3.68                                                             
C  1.34 11.62 18.38                                                             
C  1.34 11.62 33.09                                                             
C  1.34 11.62 47.79                                                             
C  1.34 11.62 62.49                                                             
C  5.37  9.30  3.68                                                             
C  5.37  9.30 18.38                                                             
C  5.37  9.30 33.09                                                             
C  5.37  9.30 47.79                                                             
C  5.37  9.30 62.49                                                             
C  9.39  6.97  3.68                                                             
C  9.39  6.97 18.38                                                             
C  9.39  6.97 33.09                                                             
C  9.39  6.97 47.79                                                             
C  9.39  6.97 62.49                                                             
C 13.42  4.65  3.68                                                             
C 13.42  4.65 18.38                                                             
C 13.42  4.65 33.09                                                             
C 13.42  4.65 47.79                                                             
C 13.42  4.65 62.49                                                             
C 17.45  2.32  3.68                                                             
C 17.45  2.32 18.38                                                             
C 17.45  2.32 33.09                                                             
C 17.45  2.32 47.79                                                             
C 17.45  2.32 62.49                                                             
C 21.47  0.00  3.68                                                             
C 21.47  0.00 18.38                                                             
C 21.47  0.00 33.09                                                             
C 21.47  0.00 47.79                                                             
C 21.47  0.00 62.49                                                             
C  1.34 16.27  3.68                                                             
C  1.34 16.27 18.38                                                             
C  1.34 16.27 33.09                                                             
C  1.34 16.27 47.79                                                             
C  1.34 16.27 62.49                                                             
C  5.37 13.95  3.68                                                             
C  5.37 13.95 18.38                                                             
C  5.37 13.95 33.09                                                             
C  5.37 13.95 47.79                                                             
C  5.37 13.95 62.49                                                             
C  9.39 11.62  3.68                                                             
C  9.39 11.62 18.38                                                             
C  9.39 11.62 33.09                                                             
C  9.39 11.62 47.79                                                             
C  9.39 11.62 62.49                                                             
C 13.42  9.30  3.68                                                             
C 13.42  9.30 18.38                                                             
C 13.42  9.30 33.09                                                             
C 13.42  9.30 47.79                                                             
C 13.42  9.30 62.49                                                             
C 17.45  6.97  3.68                                                             
C 17.45  6.97 18.38                                                             
C 17.45  6.97 33.09                                                             
C 17.45  6.97 47.79                                                             
C 17.45  6.97 62.49                                                             
C 21.47  4.65  3.68                                                             
C 21.47  4.65 18.38                                                             
C 21.47  4.65 33.09                                                             
C 21.47  4.65 47.79                                                             
C 21.47  4.65 62.49                                                             
C 25.50  2.32  3.68                                                             
C 25.50  2.32 18.38                                                             
C 25.50  2.32 33.09                                                             
C 25.50  2.32 47.79                                                             
C 25.50  2.32 62.49                                                             
C 29.52  0.00  3.68                                                             
C 29.52  0.00 18.38                                                             
C 29.52  0.00 33.09                                                             
C 29.52  0.00 47.79                                                             
C 29.52  0.00 62.49                                                             
C  9.39 16.27  3.68                                                             
C  9.39 16.27 18.38                                                             
C  9.39 16.27 33.09                                                             
C  9.39 16.27 47.79                                                             
C  9.39 16.27 62.49                                                             
C 13.42 13.95  3.68                                                             
C 13.42 13.95 18.38                                                             
C 13.42 13.95 33.09                                                             
C 13.42 13.95 47.79                                                             
C 13.42 13.95 62.49                                                             
C 17.45 11.62  3.68                                                             
C 17.45 11.62 18.38                                                             
C 17.45 11.62 33.09                                                             
C 17.45 11.62 47.79                                                             
C 17.45 11.62 62.49                                                             
C 21.47  9.30  3.68                                                             
C 21.47  9.30 18.38                                                             
C 21.47  9.30 33.09                                                             
C 21.47  9.30 47.79                                                             
C 21.47  9.30 62.49                                                             
C 25.50  6.97  3.68                                                             
C 25.50  6.97 18.38                                                             
C 25.50  6.97 33.09                                                             
C 25.50  6.97 47.79                                                             
C 25.50  6.97 62.49                                                             
C 29.52  4.65  3.68                                                             
C 29.52  4.65 18.38                                                             
C 29.52  4.65 33.09                                                             
C 29.52  4.65 47.79                                                             
C 29.52  4.65 62.49                                                             
C 17.45 16.27  3.68                                                             
C 17.45 16.27 18.38                                                             
C 17.45 16.27 33.09                                                             
C 17.45 16.27 47.79                                                             
C 17.45 16.27 62.49                                                             
C 21.47 13.95  3.68                                                             
C 21.47 13.95 18.38                                                             
C 21.47 13.95 33.09                                                             
C 21.47 13.95 47.79                                                             
C 21.47 13.95 62.49                                                             
C 25.50 11.62  3.68                                                             
C 25.50 11.62 18.38                                                             
C 25.50 11.62 33.09                                                             
C 25.50 11.62 47.79                                                             
C 25.50 11.62 62.49                                                             
C 29.52  9.30  3.68                                                             
C 29.52  9.30 18.38                                                             
C 29.52  9.30 33.09                                                             
C 29.52  9.30 47.79                                                             
C 29.52  9.30 62.49                                                             
C 25.50 16.27  3.68                                                             
C 25.50 16.27 18.38                                                             
C 25.50 16.27 33.09                                                             
C 25.50 16.27 47.79                                                             
C 25.50 16.27 62.49                                                             
C 29.52 13.95  3.68                                                             
C 29.52 13.95 18.38                                                             
C 29.52 13.95 33.09                                                             
C 29.52 13.95 47.79                                                             
C 29.52 13.95 62.49                                                             
C  2.68  0.00 11.03                                                             
C  2.68  0.00 25.73                                                             
C  2.68  0.00 40.44                                                             
C  2.68  0.00 55.14                                                             
C  2.68  0.00 69.85                                                             
C  2.68  4.65 11.03                                                             
C  2.68  4.65 25.73                                                             
C  2.68  4.65 40.44                                                             
C  2.68  4.65 55.14                                                             
C  2.68  4.65 69.85                                                             
C  6.71  2.32 11.03                                                             
C  6.71  2.32 25.73                                                             
C  6.71  2.32 40.44                                                             
C  6.71  2.32 55.14                                                             
C  6.71  2.32 69.85                                                             
C 10.74  0.00 11.03                                                             
C 10.74  0.00 25.73                                                             
C 10.74  0.00 40.44                                                             
C 10.74  0.00 55.14                                                             
C 10.74  0.00 69.85                                                             
C  2.68  9.30 11.03                                                             
C  2.68  9.30 25.73                                                             
C  2.68  9.30 40.44                                                             
C  2.68  9.30 55.14                                                             
C  2.68  9.30 69.85                                                             
C  6.71  6.97 11.03                                                             
C  6.71  6.97 25.73                                                             
C  6.71  6.97 40.44                                                             
C  6.71  6.97 55.14                                                             
C  6.71  6.97 69.85                                                             
C 10.74  4.65 11.03                                                             
C 10.74  4.65 25.73                                                             
C 10.74  4.65 40.44                                                             
C 10.74  4.65 55.14                                                             
C 10.74  4.65 69.85                                                             
C 14.76  2.32 11.03                                                             
C 14.76  2.32 25.73                                                             
C 14.76  2.32 40.44                                                             
C 14.76  2.32 55.14                                                             
C 14.76  2.32 69.85                                                             
C 18.79  0.00 11.03                                                             
C 18.79  0.00 25.73                                                             
C 18.79  0.00 40.44                                                             
C 18.79  0.00 55.14                                                             
C 18.79  0.00 69.85                                                             
C  2.68 13.95 11.03                                                             
C  2.68 13.95 25.73                                                             
C  2.68 13.95 40.44                                                             
C  2.68 13.95 55.14                                                             
C  2.68 13.95 69.85                                                             
C  6.71 11.62 11.03                                                             
C  6.71 11.62 25.73                                                             
C  6.71 11.62 40.44                                                             
C  6.71 11.62 55.14                                                             
C  6.71 11.62 69.85                                                             
C 10.74  9.30 11.03                                                             
C 10.74  9.30 25.73                                                             
C 10.74  9.30 40.44                                                             
C 10.74  9.30 55.14                                                             
C 10.74  9.30 69.85                                                             
C 14.76  6.97 11.03                                                             
C 14.76  6.97 25.73                                                             
C 14.76  6.97 40.44                                                             
C 14.76  6.97 55.14                                                             
C 14.76  6.97 69.85                                                             
C 18.79  4.65 11.03                                                             
C 18.79  4.65 25.73                                                             
C 18.79  4.65 40.44                                                             
C 18.79  4.65 55.14                                                             
C 18.79  4.65 69.85                                                             
C 22.81  2.32 11.03                                                             
C 22.81  2.32 25.73                                                             
C 22.81  2.32 40.44                                                             
C 22.81  2.32 55.14                                                             
C 22.81  2.32 69.85                                                             
C 26.84  0.00 11.03                                                             
C 26.84  0.00 25.73                                                             
C 26.84  0.00 40.44                                                             
C 26.84  0.00 55.14                                                             
C 26.84  0.00 69.85                                                             
C  6.71 16.27 11.03                                                             
C  6.71 16.27 25.73                                                             
C  6.71 16.27 40.44                                                             
C  6.71 16.27 55.14                                                             
C  6.71 16.27 69.85                                                             
C 10.74 13.95 11.03                                                             
C 10.74 13.95 25.73                                                             
C 10.74 13.95 40.44                                                             
C 10.74 13.95 55.14                                                             
C 10.74 13.95 69.85                                                             
C 14.76 11.62 11.03                                                             
C 14.76 11.62 25.73                                                             
C 14.76 11.62 40.44                                                             
C 14.76 11.62 55.14                                                             
C 14.76 11.62 69.85                                                             
C 18.79  9.30 11.03                                                             
C 18.79  9.30 25.73                                                             
C 18.79  9.30 40.44                                                             
C 18.79  9.30 55.14                                                             
C 18.79  9.30 69.85                                                             
C 22.81  6.97 11.03                                                             
C 22.81  6.97 25.73                                                             
C 22.81  6.97 40.44                                                             
C 22.81  6.97 55.14                                                             
C 22.81  6.97 69.85                                                             
C 26.84  4.65 11.03                                                             
C 26.84  4.65 25.73                                                             
C 26.84  4.65 40.44                                                             
C 26.84  4.65 55.14                                                             
C 26.84  4.65 69.85                                                             
C 30.86  2.32 11.03                                                             
C 30.86  2.32 25.73                                                             
C 30.86  2.32 40.44                                                             
C 30.86  2.32 55.14                                                             
C 30.86  2.32 69.85                                                             
C 14.76 16.27 11.03                                                             
C 14.76 16.27 25.73                                                             
C 14.76 16.27 40.44                                                             
C 14.76 16.27 55.14                                                             
C 14.76 16.27 69.85                                                             
C 18.79 13.95 11.03                                                             
C 18.79 13.95 25.73                                                             
C 18.79 13.95 40.44                                                             
C 18.79 13.95 55.14                                                             
C 18.79 13.95 69.85                                                             
C 22.81 11.62 11.03                                                             
C 22.81 11.62 25.73                                                             
C 22.81 11.62 40.44                                                             
C 22.81 11.62 55.14                                                             
C 22.81 11.62 69.85                                                             
C 26.84  9.30 11.03                                                             
C 26.84  9.30 25.73                                                             
C 26.84  9.30 40.44                                                             
C 26.84  9.30 55.14                                                             
C 26.84  9.30 69.85                                                             
C 30.86  6.97 11.03                                                             
C 30.86  6.97 25.73                                                             
C 30.86  6.97 40.44                                                             
C 30.86  6.97 55.14                                                             
C 30.86  6.97 69.85                                                             
C 22.81 16.27 11.03                                                             
C 22.81 16.27 25.73                                                             
C 22.81 16.27 40.44                                                             
C 22.81 16.27 55.14                                                             
C 22.81 16.27 69.85                                                             
C 26.84 13.95 11.03                                                             
C 26.84 13.95 25.73                                                             
C 26.84 13.95 40.44                                                             
C 26.84 13.95 55.14                                                             
C 26.84 13.95 69.85                                                             
C 30.86 11.62 11.03                                                             
C 30.86 11.62 25.73                                                             
C 30.86 11.62 40.44                                                             
C 30.86 11.62 55.14                                                             
C 30.86 11.62 69.85                                                             
C 30.86 16.27 11.03                                                             
C 30.86 16.27 25.73                                                             
C 30.86 16.27 40.44                                                             
C 30.86 16.27 55.14                                                             
C 30.86 16.27 69.85                                                             
%ENDBLOCK POSITIONS_ABS                                                         

--------------------------------------------------------------------------------
-------------------------------- END INPUT FILE --------------------------------
--------------------------------------------------------------------------------


 
<<<<<<<<<<<<<<<<<<<<<<<<<<<<<<<<< Full system >>>>>>>>>>>>>>>>>>>>>>>>>>>>>>>>>>
<<<<<<<<<<<<<<<<<<<<<<<<<<< PAW Dataset information >>>>>>>>>>>>>>>>>>>>>>>>>>>
File: ~/pp/paw/c_pbe_abinit.paw; rc = 1.25 bohr; shape type =  3; rshape = 1.25 bohr;
  Atomic number:  6;  ionic charge:  4.000000
    Partial Wave 1: l = 0
    Partial Wave 2: l = 0
    Partial Wave 3: l = 1
    Partial Wave 4: l = 1
  Core charge supplied for Nonlinear Core Corrections
<<<<<<<<<<<<<<<<<<<<<<<<<<<<<<<<<<<<<<< >>>>>>>>>>>>>>>>>>>>>>>>>>>>>>>>>>>>>>>

-------------------------- Atom counting information ---------------------------
Symbol    Natoms    Nngwfs    Nprojs
  C        640      2560      5120
.......   ......    ......    ......
Totals:    640      2560      5120
--------------------------------------------------------------------------------

=============================== PSINC grid sizes ===============================
                      Simulation cell:   63 x  35 x 145
                              FFT-box:   63 x  35 x 117
                                  PPD:    7 x   5 x   1
Grid space d1=  0.511269841270a0 (KE cutoff=  29.06054Eh = 790.77748eV)
Grid space d2=  0.531142857143a0 (KE cutoff=  26.92659Eh = 732.70972eV)
Grid space d3=  0.507034482759a0 (KE cutoff=  29.54806Eh = 804.04369eV)
================================================================================
  
WARNING in cell_grid_distribute:
Average of less than one 23-slab per node, so workload cannot be
equally balanced between nodes.

********************* Fourier parallelisation information **********************
       Coarse grid (whole simulation cell) dimensions:     63    35   145
          Real-space ('12') slabs/node (min max mean):      3     4     3
         Recip-space ('23') slabs/node (min max mean):      0     1     0
********************************************************************************

********************* Fourier parallelisation information **********************
       Double grid (whole simulation cell) dimensions:    126    70   290
          Real-space ('12') slabs/node (min max mean):      7     8     7
         Recip-space ('23') slabs/node (min max mean):      1     2     1
********************************************************************************

Atom SCF Calculation for C  : Z (AE atom) =   6 : Z (PS atom) =   4
Config String: 2s2 2p2
Orbitals (num,occ):  2     2.00 2.00
Orbitals   (num,l):  2        0    1
Real-space Grid (nr,dr,rmax): 1293    0.0069659443    9.0000000000
Spherical Bessel Basis (nsws,lmax,cutoff):   37    2  161.4736382572
Confining potential (l,width,scale):  0    3.0000000000  100.0000000000
Confining potential (l,width,scale):  1    3.0000000000  100.0000000000
  1         -5.4966243538   -1.3415066196    4.5135257941   -1.6613421942
  2         -5.4660395227   -1.4172174419    4.4326892861   -1.6365362708
  3         -5.4759582348   -1.4337557188    4.4144498970   -1.6324663609
  4         -5.4843804720   -1.4365219414    4.4114201180   -1.6322033818
  5         -5.4882713954   -1.4381734139    4.4096331461   -1.6320227940
  6         -5.4902132675   -1.4390636620    4.4086785626   -1.6319270645
  7         -5.4912093711   -1.4395303631    4.4081823351   -1.6318789226
  8         -5.4917264140   -1.4397726342    4.4079268833   -1.6318551036
  9         -5.4919964206   -1.4398979410    4.4077958777   -1.6318434025
 10         -5.4921379132   -1.4399626875    4.4077287721   -1.6318376788
 11         -5.4922122245   -1.4399961532    4.4076943935   -1.6318348878
 12         -5.4922513136   -1.4400134684    4.4076767658   -1.6318335308
 13         -5.4922719001   -1.4400224400    4.4076677156   -1.6318328728
 14         -5.4922827535   -1.4400270959    4.4076630621   -1.6318325547
 15         -5.4922884809   -1.4400295164    4.4076606653   -1.6318324014
 16         -5.4922915059   -1.4400307770    4.4076594286   -1.6318323279
 17         -5.4922931051   -1.4400314347    4.4076587894   -1.6318322927
 18         -5.4922939512   -1.4400317785    4.4076584583   -1.6318322760
 19         -5.4922943993   -1.4400319585    4.4076582865   -1.6318322681
 20         -5.4922946368   -1.4400320529    4.4076581972   -1.6318322644
 21         -5.4922947627   -1.4400321025    4.4076581507   -1.6318322627
 22         -5.4922948296   -1.4400321287    4.4076581265   -1.6318322619
Atom SCF converged after  22 iterations to a total energy of     -5.49229483

Determining parallel strategy ...
... using space-filling curve
... NGWF load balancing: max     64;  min     64;  average     64
... Projector load balancing: max    128;  min    128;  average    128
... done
Calculating Ewald energy ...
              Ewald: real-space energy =    9493.015829
        Ewald: reciprocal-space energy =       0.577250
         Ewald: (sum_charge)**2 Energy =   10768.736226
         Ewald: (sum_charge**2) Energy =     851.343350
                          Ewald Energy =   -2126.486497
Basis initialisation ...... NGWF spheres initialised
... Projector spheres initialised
... NGWF tight boxes initialised
... Projector tight boxes initialised
... Tight-boxes gathered
... NGWF basis size (local,global):     692596  27886816
... PAW projector initialisation
... done

============================= Charge Augmentation ==============================
                           Aug box size:   11 x  11 x  11
================================================================================

========================== Sparse matrix information ===========================
                        Overlap matrix filling:  40.31%
                        Density kernel filling: 100.00%
              NGWF-Proj overlap matrix filling:  12.19%
                    Aug Overlap matrix filling:  47.03%
                    Hamiltonian matrix filling:  47.03%
                  NGWF diagonal matrix filling:   0.16%
                             KS matrix filling: 100.00% 
                           KSKS matrix filling: 100.00% 
================================================================================

Sparse matrix initialisation ... done
NGWF initialisation ...... done
============ Calculation of NGWF S^-1 using Hotelling algorithm ================ 
         Iteration  |  Frobenius norm and Maximum abs value    (of I-S*S_n^-1)   
               1       0.48907344E+02     0.97393147E+00
               2       0.47582529E+02     0.94977268E+00
               3       0.45634090E+02     0.90632587E+00
               4       0.43156419E+02     0.83447770E+00
               5       0.40216868E+02     0.72928246E+00
               6       0.36843615E+02     0.67128025E+00
               7       0.33387408E+02     0.62465972E+00
               8       0.30069478E+02     0.58468441E+00
               9       0.26408027E+02     0.53780635E+00
              10       0.21703941E+02     0.46272071E+00
              11       0.15619360E+02     0.34595732E+00
              12       0.88286711E+01     0.19875815E+00
              13       0.32571580E+01     0.70722189E-01
              14       0.53419355E+00     0.10450783E-01
              15       0.17496493E-01     0.28575513E-03
              16       0.25659997E-04     0.29090565E-06
              17       0.84664244E-10     0.57309713E-12
================================================================================
Calculating core density ...
================================= Core Density =================================
               Core den box size:   21 x  21 x  21
================================================================================
 ... done
Up spin density kernel initialisation ...... done

Writing density kernel to file "3.890624_GO_manual_4x64graphite.dkn" ... done

>>> Optimising kernel for current NGWFs:

--------------------------- Ensemble-DFT optimisation --------------------------
Running ScaLAPACK on   40 processor(s).

--------------------------------------------------------------------------------
  Iter                              Commutator    Free_energy(A=E-TS)     DeltaA
#    0                          0.000040508194   -3653.55765354329105  -3.65E+03

Step                       =       0.381966011250
Energy                     =   -3653.557628286430
Entropy (-TS)              =      -0.000025256718
Free energy (A=E-TS)       =   -3653.557653543291
Est. 0K Energy 0.5*(E+A)   =   -3653.557640914861
Residual Non-orthogonality =       0.000000000000
Residual N_electrons       =      -0.000000000143

Spin          Integrated_Ne            Fermi_level     Delta_Fermi_level
   1      2560.000000000990         0.144087585294              1.44E-01

                           Spin 1          
     Orb      H-eigenvalues     Occupancies
       1 |    -0.5794836701    1.0000000000 | 
                          ------
    1276 |     0.1082656398    0.9999877709 | 
    1277 |     0.1087622594    0.9999856946 | 
    1278 |     0.1088823731    0.9999851416 | 
    1279 |     0.1088937524    0.9999850881 | 
    1280 |     0.1093916988    0.9999825490 | 
                 - Gap at zero temperature -
    1281 |     0.1806478455    0.0000096860 | 
    1282 |     0.1806607869    0.0000096465 | 
    1283 |     0.1806646609    0.0000096347 | 
    1284 |     0.1807663554    0.0000093302 | 
    1285 |     0.1807691783    0.0000093219 | 
                          ------
    2560 |     0.9781747972    0.0000000000 | 

                       |  Abs_value |  Threshold | Converged
     Delta_Free_energy |   3.65E+03 |   1.00E-06 |        No
     Delta_Energy      |   3.65E+03 |   1.00E-04 |        No
     Delta_Entropy     |   2.53E-05 |   1.00E-04 |       Yes
     Commutator        |   4.05E-05 |   1.00E-05 |        No
     Delta_Fermi_level |   1.44E-01 |   1.00E-03 |        No

  Line search of the free energy minimum:
  Step_type        Step             Free_energy   Predicted_free_energy
.   Initial    0.000000    -3653.55765354329105
.    Trial1    0.381966    -3653.55944948183014
.    Trial2    0.618034    -3653.55991425198135
. Quadratic    0.722607    -3653.55996348364533    -3653.55996261043902

--------------------------------------------------------------------------------
  Iter                              Commutator    Free_energy(A=E-TS)     DeltaA
#    1                          0.000020743049   -3653.55996348364533  -2.31E-03

Step                       =       0.722607137780
Energy                     =   -3653.559938539375
Entropy (-TS)              =      -0.000024944309
Free energy (A=E-TS)       =   -3653.559963483645
Est. 0K Energy 0.5*(E+A)   =   -3653.559951011510
Residual Non-orthogonality =       0.000000000000
Residual N_electrons       =       0.000000000039

Spin          Integrated_Ne            Fermi_level     Delta_Fermi_level
   1      2559.999999999723         0.141675488168             -2.41E-03

                           Spin 1          
     Orb      H-eigenvalues     Occupancies
       1 |    -0.5846119198    1.0000000000 | 
                          ------
    1276 |     0.1058773205    0.9999876787 | 
    1277 |     0.1063125749    0.9999858633 | 
    1278 |     0.1063225166    0.9999858189 | 
    1279 |     0.1063634790    0.9999856343 | 
    1280 |     0.1068096173    0.9999834610 | 
                 - Gap at zero temperature -
    1281 |     0.1781832882    0.0000098478 | 
    1282 |     0.1781943718    0.0000098134 | 
    1283 |     0.1782171417    0.0000097431 | 
    1284 |     0.1783152561    0.0000094459 | 
    1285 |     0.1783287762    0.0000094056 | 
                          ------
    2560 |     0.9737042916    0.0000000000 | 

                       |  Abs_value |  Threshold | Converged
     Delta_Free_energy |   2.31E-03 |   1.00E-06 |        No
     Delta_Energy      |   2.31E-03 |   1.00E-04 |        No
     Delta_Entropy     |   3.12E-07 |   1.00E-04 |       Yes
     Commutator        |   2.07E-05 |   1.00E-05 |        No
     Delta_Fermi_level |   2.41E-03 |   1.00E-03 |        No

  Line search of the free energy minimum:
  Step_type        Step             Free_energy   Predicted_free_energy
.   Initial    0.000000    -3653.55996348364533
.    Trial1    0.722607    -3653.55872169499435
.    Trial2    0.276011    -3653.56036919608187
. Quadratic    0.240950    -3653.56037803851177    -3653.56037797229874

--------------------------------------------------------------------------------
  Iter                              Commutator    Free_energy(A=E-TS)     DeltaA
#    2                          0.000009203273   -3653.56037803851177  -4.15E-04

Step                       =       0.240950320863
Energy                     =   -3653.560353132757
Entropy (-TS)              =      -0.000024906072
Free energy (A=E-TS)       =   -3653.560378038512
Est. 0K Energy 0.5*(E+A)   =   -3653.560365585635
Residual Non-orthogonality =       0.000000000000
Residual N_electrons       =       0.000000000317

Spin          Integrated_Ne            Fermi_level     Delta_Fermi_level
   1      2559.999999997757         0.141462573692             -2.13E-04

                           Spin 1          
     Orb      H-eigenvalues     Occupancies
       1 |    -0.5850815655    1.0000000000 | 
                          ------
    1276 |     0.1056181967    0.9999878572 | 
    1277 |     0.1061036817    0.9999858454 | 
    1278 |     0.1061240117    0.9999857542 | 
    1279 |     0.1061328420    0.9999857144 | 
    1280 |     0.1066193938    0.9999833421 | 
                 - Gap at zero temperature -
    1281 |     0.1780046052    0.0000097419 | 
    1282 |     0.1780164697    0.0000097055 | 
    1283 |     0.1780384124    0.0000096385 | 
    1284 |     0.1781387381    0.0000093379 | 
    1285 |     0.1781516682    0.0000092999 | 
                          ------
    2560 |     0.9732908514    0.0000000000 | 

                       |  Abs_value |  Threshold | Converged
     Delta_Free_energy |   4.15E-04 |   1.00E-06 |        No
     Delta_Energy      |   4.15E-04 |   1.00E-04 |        No
     Delta_Entropy     |   3.82E-08 |   1.00E-04 |       Yes
     Commutator        |   9.20E-06 |   1.00E-05 |       Yes
     Delta_Fermi_level |   2.13E-04 |   1.00E-03 |       Yes

  Line search of the free energy minimum:
  Step_type        Step             Free_energy   Predicted_free_energy
.   Initial    0.000000    -3653.56037803851177
.    Trial1    0.240950    -3653.56044767267758
.    Trial2    0.530881    -3653.56046093233954
. Quadratic    0.435819    -3653.56046506712437    -3653.56046507328574

--------------------------------------------------------------------------------
  Iter                              Commutator    Free_energy(A=E-TS)     DeltaA
#    3                          0.000005898031   -3653.56046506712437  -8.70E-05

Step                       =       0.435818942206
Energy                     =   -3653.560440217336
Entropy (-TS)              =      -0.000024849611
Free energy (A=E-TS)       =   -3653.560465067124
Est. 0K Energy 0.5*(E+A)   =   -3653.560452642230
Residual Non-orthogonality =       0.000000000000
Residual N_electrons       =      -0.000000000176

Spin          Integrated_Ne            Fermi_level     Delta_Fermi_level
   1      2560.000000001250         0.141168012746             -2.95E-04

                           Spin 1          
     Orb      H-eigenvalues     Occupancies
       1 |    -0.5857157819    1.0000000000 | 
                          ------
    1276 |     0.1052901638    0.9999879848 | 
    1277 |     0.1057747525    0.9999859982 | 
    1278 |     0.1058359966    0.9999857247 | 
    1279 |     0.1058435825    0.9999856905 | 
    1280 |     0.1063293043    0.9999833185 | 
                 - Gap at zero temperature -
    1281 |     0.1777334081    0.0000096703 | 
    1282 |     0.1777462188    0.0000096313 | 
    1283 |     0.1777671838    0.0000095677 | 
    1284 |     0.1778699540    0.0000092622 | 
    1285 |     0.1778822262    0.0000092264 | 
                          ------
    2560 |     0.9727493487    0.0000000000 | 

                       |  Abs_value |  Threshold | Converged
     Delta_Free_energy |   8.70E-05 |   1.00E-06 |        No
     Delta_Energy      |   8.71E-05 |   1.00E-04 |       Yes
     Delta_Entropy     |   5.65E-08 |   1.00E-04 |       Yes
     Commutator        |   5.90E-06 |   1.00E-05 |       Yes
     Delta_Fermi_level |   2.95E-04 |   1.00E-03 |       Yes

  Line search of the free energy minimum:
  Step_type        Step             Free_energy   Predicted_free_energy
.   Initial    0.000000    -3653.56046506712437
.    Trial1    0.435819    -3653.56048381308483
.    Trial2    0.651317    -3653.56043198135512
. Quadratic    0.267313    -3653.56049618092266    -3653.56049617376766

--------------------------------------------------------------------------------
  Iter                              Commutator    Free_energy(A=E-TS)     DeltaA
#    4                          0.000003622744   -3653.56049618092266  -3.11E-05

Step                       =       0.267313114626
Energy                     =   -3653.560471352746
Entropy (-TS)              =      -0.000024828275
[...]
 C   160 -- C   385       -0.10      5.37000
 C   159 -- C   384       -0.10      5.37000
 C   158 -- C   383       -0.10      5.37000
 C   157 -- C   382       -0.10      5.37000
 C   156 -- C   381       -0.10      5.37000
 C   155 -- C   355       -0.10      5.37000
 C   154 -- C   354       -0.10      5.37000
 C   153 -- C   353       -0.10      5.37000
 C   152 -- C   352       -0.10      5.37000
 C   151 -- C   351       -0.10      5.37000
 C   140 -- C   335       -0.10      5.37000
 C   139 -- C   334       -0.10      5.37000
 C   138 -- C   333       -0.10      5.37000
 C   137 -- C   332       -0.10      5.37000
 C   136 -- C   331       -0.10      5.37000
 C   115 -- C   325       -0.10      5.37000
 C   114 -- C   324       -0.10      5.37000
 C   113 -- C   323       -0.10      5.37000
 C   112 -- C   322       -0.10      5.37000
 C   111 -- C   321       -0.10      5.37000
 C   219 -- C   569       -0.10      5.37202
 C   218 -- C   568       -0.10      5.37202
 C   217 -- C   567       -0.10      5.37202
 C   216 -- C   566       -0.10      5.37202
 C   250 -- C   540       -0.10      5.37202
 C   249 -- C   539       -0.10      5.37202
 C   248 -- C   538       -0.10      5.37202
 C   247 -- C   537       -0.10      5.37202
 C   246 -- C   536       -0.10      5.37202
 C   220 -- C   570       -0.10      5.37202
 C   285 -- C   580       -0.10      5.37202
 C   284 -- C   579       -0.10      5.37202
 C   283 -- C   578       -0.10      5.37202
 C   282 -- C   577       -0.10      5.37202
 C   281 -- C   576       -0.10      5.37202
 C   260 -- C   605       -0.10      5.37202
 C   259 -- C   604       -0.10      5.37202
 C   258 -- C   603       -0.10      5.37202
 C   257 -- C   602       -0.10      5.37202
 C   256 -- C   601       -0.10      5.37202
 C   220 -- C   515       -0.10      5.37202
 C   219 -- C   514       -0.10      5.37202
 C   218 -- C   513       -0.10      5.37202
 C   217 -- C   512       -0.10      5.37202
 C   216 -- C   511       -0.10      5.37202
 C   195 -- C   540       -0.10      5.37202
 C   195 -- C   500       -0.10      5.37202
 C   194 -- C   539       -0.10      5.37202
 C   194 -- C   499       -0.10      5.37202
 C   193 -- C   538       -0.10      5.37202
 C   193 -- C   498       -0.10      5.37202
 C   192 -- C   537       -0.10      5.37202
 C   192 -- C   497       -0.10      5.37202
 C   191 -- C   536       -0.10      5.37202
 C   191 -- C   496       -0.10      5.37202
 C   180 -- C   515       -0.10      5.37202
 C   179 -- C   514       -0.10      5.37202
 C   178 -- C   513       -0.10      5.37202
 C   177 -- C   512       -0.10      5.37202
 C   176 -- C   511       -0.10      5.37202
 C    11 -- C   331       -0.10      5.37202
 C   205 -- C   550       -0.10      5.37202
 C   204 -- C   549       -0.10      5.37202
 C   203 -- C   548       -0.10      5.37202
 C   202 -- C   547       -0.10      5.37202
 C   201 -- C   546       -0.10      5.37202
 C    95 -- C   425       -0.10      5.37202
 C    95 -- C   365       -0.10      5.37202
 C    94 -- C   424       -0.10      5.37202
 C    94 -- C   364       -0.10      5.37202
 C    93 -- C   423       -0.10      5.37202
 C    93 -- C   363       -0.10      5.37202
 C    92 -- C   422       -0.10      5.37202
 C    92 -- C   362       -0.10      5.37202
 C    91 -- C   421       -0.10      5.37202
 C    91 -- C   361       -0.10      5.37202
 C    40 -- C   365       -0.10      5.37202
 C    39 -- C   364       -0.10      5.37202
 C    38 -- C   363       -0.10      5.37202
 C    37 -- C   362       -0.10      5.37202
 C    36 -- C   361       -0.10      5.37202
 C    15 -- C   335       -0.10      5.37202
 C    65 -- C   395       -0.10      5.37202
 C    65 -- C   345       -0.10      5.37202
 C    64 -- C   394       -0.10      5.37202
 C    64 -- C   344       -0.10      5.37202
 C    63 -- C   393       -0.10      5.37202
 C    30 -- C   355       -0.10      5.37202
 C    63 -- C   343       -0.10      5.37202
 C    62 -- C   392       -0.10      5.37202
 C    30 -- C   325       -0.10      5.37202
 C    14 -- C   334       -0.10      5.37202
 C    62 -- C   342       -0.10      5.37202
 C    61 -- C   391       -0.10      5.37202
 C    29 -- C   354       -0.10      5.37202
 C    61 -- C   341       -0.10      5.37202
 C    29 -- C   324       -0.10      5.37202
 C   260 -- C   550       -0.10      5.37202
 C   259 -- C   549       -0.10      5.37202
 C    28 -- C   353       -0.10      5.37202
 C   258 -- C   548       -0.10      5.37202
 C   257 -- C   547       -0.10      5.37202
 C   256 -- C   546       -0.10      5.37202
 C    28 -- C   323       -0.10      5.37202
 C    27 -- C   352       -0.10      5.37202
 C    13 -- C   333       -0.10      5.37202
 C    27 -- C   322       -0.10      5.37202
 C   120 -- C   395       -0.10      5.37202
 C    26 -- C   351       -0.10      5.37202
 C   119 -- C   394       -0.10      5.37202
 C   118 -- C   393       -0.10      5.37202
 C    55 -- C   335       -0.10      5.37202
 C   117 -- C   392       -0.10      5.37202
 C    26 -- C   321       -0.10      5.37202
 C   116 -- C   391       -0.10      5.37202
 C    54 -- C   334       -0.10      5.37202
 C    12 -- C   332       -0.10      5.37202
 C    53 -- C   333       -0.10      5.37202
 C   230 -- C   580       -0.10      5.37202
 C   230 -- C   525       -0.10      5.37202
 C   229 -- C   579       -0.10      5.37202
 C   229 -- C   524       -0.10      5.37202
 C   228 -- C   578       -0.10      5.37202
 C    52 -- C   332       -0.10      5.37202
 C   228 -- C   523       -0.10      5.37202
 C   227 -- C   577       -0.10      5.37202
 C   227 -- C   522       -0.10      5.37202
 C   226 -- C   576       -0.10      5.37202
 C   226 -- C   521       -0.10      5.37202
 C    51 -- C   331       -0.10      5.37202
 C    23 -- C   478       -0.10      5.37202
 C    49 -- C   469       -0.10      5.37202
 C    48 -- C   468       -0.10      5.37202
 C    47 -- C   467       -0.10      5.37202
 C    22 -- C   477       -0.10      5.37202
 C    46 -- C   466       -0.10      5.37202
 C    21 -- C   476       -0.10      5.37202
 C    85 -- C   355       -0.10      5.37202
 C    84 -- C   354       -0.10      5.37202
 C    83 -- C   353       -0.10      5.37202
 C    82 -- C   352       -0.10      5.37202
 C    81 -- C   351       -0.10      5.37202
 C    55 -- C   385       -0.10      5.37202
 C    54 -- C   384       -0.10      5.37202
 C    25 -- C   480       -0.10      5.37202
 C    53 -- C   383       -0.10      5.37202
 C    52 -- C   382       -0.10      5.37202
 C    51 -- C   381       -0.10      5.37202
 C    24 -- C   479       -0.10      5.37202
 C    50 -- C   470       -0.10      5.37202
 C    24 -- C   449       -0.10      5.37202
 C     6 -- C   416       -0.10      5.37202
 C    23 -- C   448       -0.10      5.37202
 C    22 -- C   447       -0.10      5.37202
 C    10 -- C   470       -0.10      5.37202
 C     5 -- C   450       -0.10      5.37202
 C    21 -- C   446       -0.10      5.37202
 C    10 -- C   420       -0.10      5.37202
 C     9 -- C   469       -0.10      5.37202
 C     9 -- C   419       -0.10      5.37202
 C     8 -- C   468       -0.10      5.37202
 C     4 -- C   449       -0.10      5.37202
 C   150 -- C   440       -0.10      5.37202
 C   149 -- C   439       -0.10      5.37202
 C   148 -- C   438       -0.10      5.37202
 C   147 -- C   437       -0.10      5.37202
 C     8 -- C   418       -0.10      5.37202
 C   146 -- C   436       -0.10      5.37202
 C     2 -- C   447       -0.10      5.37202
 C   135 -- C   460       -0.10      5.37202
 C     7 -- C   467       -0.10      5.37202
 C   134 -- C   459       -0.10      5.37202
 C   133 -- C   458       -0.10      5.37202
 C   132 -- C   457       -0.10      5.37202
 C   131 -- C   456       -0.10      5.37202
 C     7 -- C   417       -0.10      5.37202
 C     1 -- C   446       -0.10      5.37202
 C     6 -- C   466       -0.10      5.37202
 C    25 -- C   450       -0.10      5.37202
 C     3 -- C   448       -0.10      5.37202
 C   106 -- C   436       -0.10      5.37202
 C   106 -- C   376       -0.10      5.37202
 C    80 -- C   410       -0.10      5.37202
 C    79 -- C   409       -0.10      5.37202
 C    78 -- C   408       -0.10      5.37202
 C    77 -- C   407       -0.10      5.37202
 C    76 -- C   406       -0.10      5.37202
 C   135 -- C   410       -0.10      5.37202
 C   134 -- C   409       -0.10      5.37202
 C   133 -- C   408       -0.10      5.37202
 C   132 -- C   407       -0.10      5.37202
 C   131 -- C   406       -0.10      5.37202
 C   110 -- C   440       -0.10      5.37202
 C   110 -- C   380       -0.10      5.37202
 C   109 -- C   439       -0.10      5.37202
 C   109 -- C   379       -0.10      5.37202
 C   108 -- C   438       -0.10      5.37202
 C   108 -- C   378       -0.10      5.37202
 C   107 -- C   437       -0.10      5.37202
 C   107 -- C   377       -0.10      5.37202
 C   215 -- C   635       -0.10      5.38000
 C   214 -- C   634       -0.10      5.38000
 C   213 -- C   633       -0.10      5.38000
 C   212 -- C   632       -0.10      5.38000
 C   211 -- C   631       -0.10      5.38000
 C   190 -- C   620       -0.10      5.38000
 C   189 -- C   619       -0.10      5.38000
 C   188 -- C   618       -0.10      5.38000
 C   187 -- C   617       -0.10      5.38000
 C   186 -- C   616       -0.10      5.38000
 C   175 -- C   595       -0.10      5.38000
 C   174 -- C   594       -0.10      5.38000
 C   173 -- C   593       -0.10      5.38000
 C   172 -- C   592       -0.10      5.38000
 C   171 -- C   591       -0.10      5.38000
 C   245 -- C   640       -0.10      5.38000
 C   244 -- C   639       -0.10      5.38000
 C   243 -- C   638       -0.10      5.38000
 C   242 -- C   637       -0.10      5.38000
 C   241 -- C   636       -0.10      5.38000
==================================================


=================== Orbital energy and occupancy information ===================

      Total number of orbitals:    2560
        Occupancy sum (kernel):    1280.000000000
   Occupancy sum (eigenvalues):    1280.000000000
                 HOMO-LUMO gap:       0.068044066 Eh
                 Mid-gap level:       0.203160657 Eh

                        Orbital | Energy (Eh) | Occupancy
                            1    -0.518356358   1.0000000
                        .......   ...........   .........
                         1271     0.165623693   0.9999892
                         1272     0.165639802   0.9999892
                         1273     0.166094839   0.9999875
                         1274     0.166110958   0.9999875
                         1275     0.167878585   0.9999781
                         1276     0.167893664   0.9999780
                         1277     0.168349959   0.9999746
                         1278     0.168365026   0.9999745
                         1279     0.168668146   0.9999719
                         1280     0.169138623   0.9999674
                        ....... -- gap at 0K -- .........
                         1281     0.237182690   0.0000143
                         1282     0.237187079   0.0000142
                         1283     0.237376489   0.0000134
                         1284     0.237377375   0.0000134
                         1285     0.237434927   0.0000132
                         1286     0.237439336   0.0000132
                         1287     0.237521074   0.0000128
                         1288     0.237636726   0.0000124
                         1289     0.237637641   0.0000124
                         1290     0.237761856   0.0000119
                        .......   ...........   .........
                         2560     1.097555244   0.0000000

================================================================================

===================== Writing canonical molecular orbitals =====================
| Orbital  Energy (eV)  Norm     |
| HOMO      4.60249614  1.000000 | Writing "3.890624_GO_manual_4x64graphite_HOMO.cube" ... done
Writing "3.890624_GO_manual_4x64graphite_HOMO.dx" ... done
| LUMO      6.45406939  1.000000 | Writing "3.890624_GO_manual_4x64graphite_LUMO.cube" ... done
Writing "3.890624_GO_manual_4x64graphite_LUMO.dx" ... done
================================================================================
 
===================== Density of States (DOS) calculation ======================
Writing "3.890624_GO_manual_4x64graphite_DOS.txt" ...  done
================================================================================
 
Writing bands to file "3.890624_GO_manual_4x64graphite.val_bands" ... done
 
================ Projected Density of States (pDOS) calculation ================
 
Constructing AM resolved functions  ...... done
Writing NGWF plot files in formats: CUBE DX ...  done
 
Performing overlap integrals ...  done
 
Computing pDOS weights ...  done
 
All bands spilling parameter =   2.92 %
Occupancy-weighted spilling parameter =   0.98 %
 
 => Outputting data for OptaDOS <=
 
Writing pDOS weights to file "3.890624_GO_manual_4x64graphite.val_pdos_bin" ... done
 
Writing band gradients to file "3.890624_GO_manual_4x64graphite.val_dome_bin" ... done
 
Writing Castep output cell file to "3.890624_GO_manual_4x64graphite-out.cell" ... done
 
 => Computing Gaussian smeared pDOS <= 
Writing "3.890624_GO_manual_4x64graphite_PDOS.txt" ...  done
 
 => Computing Occupancy-weighted Gaussian smeared pDOS <= 
Writing "3.890624_GO_manual_4x64graphite_occ_PDOS.txt" ...  done
  => Band centres: 
 S band centre of group 1:  -14.730919 eV
 P band centre of group 1:   -7.577842 eV
  Band centres done. <=
  => Integrated number of electrons in each AM band: 
 S num electrons of group 1:  577.098915
 P num electrons of group 1: 1957.787020
  Integrated number of electrons done. <=
================================================================================

------------------------------ TIMING INFORMATION ------------------------------
AVERAGE TIME:    3079.009s on     40 node(s)                                    
TOTAL TIME:      3079.010s on     40 node(s)                                    
================= AVERAGE TIMINGS FROM ALL NODES (CUMULATIVE) ==================
|| TAG                                    #calls    cpu time   %total  Gflops ||
|| work_imbalance                       :     1        0.00s   0.000%  ------ ||
|| paw_tcore_density                    :     1        0.01s   0.000%  ------ ||
|| paw_tcore_hartree_on_grid            :     1        0.01s   0.000%  ------ ||
|| paw_sphere_density_on_grid           :     1        0.01s   0.000%  ------ ||
|| sparse_set_to_garbage                :   135        0.02s   0.001%  ------ ||
|| paw_dij_hartree                      :   278        0.04s   0.001%  ------ ||
|| pseudo_make_structure_factor         :     1        0.06s   0.002%  ------ ||
|| basis_extract_function_from_box      :  1536        0.07s   0.002%  ------ ||
|| paw_species_calc_proj_prec_mat       :     1        0.12s   0.004%  ------ ||
|| density_init_guess_real              :     1        0.18s   0.006%  ------ ||
|| paw_dataset_init                     :     1        0.19s   0.006%  ------ ||
|| restart_kernel_write                 :    13        0.66s   0.021%  ------ ||
|| ngwfs_initialise_from_radial         :     2        0.67s   0.022%  ------ ||
|| sparse_init                          :     1        0.88s   0.029%  ------ ||
|| dense_normal_eigensolve              :     1        1.31s   0.042%  ------ ||
|| hartree_on_grid                      :   209        1.42s   0.046%  ------ ||
|| projectors_init_fftbox_recip         :   121        2.34s   0.076%  ------ ||
|| ewald_calculate_energy               :     1        3.35s   0.109%  ------ ||
|| fourier_apply_box_pair               :  2272        3.77s   0.122% 559.315 ||
|| basis_copy_function_to_box           : 19904        4.30s   0.140%  ------ ||
|| augmentation_screen_dij              :   214        4.74s   0.154%  ------ ||
|| sparse_embed_hotelling_invert_embed  :    23        6.46s   0.210%  ------ ||
|| sw_init                              :     1        6.73s   0.219%  ------ ||
|| ngwf_gradient_coeffs                 :    12        8.56s   0.278%  ------ ||
|| sparse_trace                         :  2516       11.50s   0.374%  ------ ||
|| cell_grid_extract_box_real           :  8428       15.93s   0.517%  ------ ||
|| fourier_apply_cell_backward          :  6450       16.16s   0.525%  54.916 ||
|| fourier_apply_cell_forward           :  6033       17.44s   0.566%  47.583 ||
|| cell_grid_deposit_box_real           : 26928       18.12s   0.589%  ------ ||
|| paw_dij_xc                           :   278       21.99s   0.714%  ------ ||
|| aug_nonlocal_mat                     :   266       30.72s   0.998%  ------ ||
|| density_fftbox_deposit_to_cell       : 13376       36.66s   1.191%  ------ ||
|| augmentation_density_on_grid         :   209       37.39s   1.214%  ------ ||
|| function_ops_brappd_ketppd           :    48       46.06s   1.496%  ------ ||
|| hamiltonian_energy_components        :     3       46.35s   1.505%  ------ ||
|| projectors_func_ovlp_box             :    24       53.40s   1.734%  ------ ||
|| eigenstates_pdos                     :     1       54.30s   1.764%  ------ ||
|| eigenstates_calculate                :     1       58.80s   1.910%  ------ ||
|| nlxc_vdw_energy                      :   416       68.36s   2.220%  ------ ||
|| xc_energy_potential                  :   208       70.46s   2.288%  ------ ||
|| integrals_kinetic                    :    23       74.79s   2.429%  ------ ||
|| dense_eigensolve                     :   182       98.81s   3.209%  ------ ||
|| sparse_product                       :  2552      102.64s   3.333%  ------ ||
|| potential_apply_to_ngwf_batch        :   264      104.17s   3.383%  ------ ||
|| properties_calculate                 :     1      107.42s   3.489%  ------ ||
|| restart_ngwfs_tightbox_output        :    11      119.95s   3.896%  ------ ||
|| basis_dot_function_with_box          : 6.078M     167.40s   5.437%  ------ ||
|| fourier_apply_box                    : 62736      195.11s   6.337% 976.806 ||
|| edft_diag_ngwf_ham                   :   181      210.84s   6.848%  ------ ||
|| projectors_gradient_batch            :    48      218.93s   7.110%  ------ ||
|| integrals_locpot_mat_els_batch       :   264      221.64s   7.198%  ------ ||
|| density_fftbox_interpolate_multiply  : 13376      259.34s   8.423%  ------ ||
|| projectors_grad_precond_batch        :    48      300.63s   9.764%  ------ ||
|| integrals_locpot_dbl_grid            :    66      326.96s  10.619%  ------ ||
|| density_batch_interp_deposit         :   836      329.00s  10.685%  ------ ||
|| edft_apply_smearing_operator         :   181      402.16s  13.061%  ------ ||
|| basis_add_function_to_box            : 16.97M     451.48s  14.663%  ------ ||
|| ngwf_gradient_build_batch            :    48      556.09s  18.061%  ------ ||
|| density_batch_row_sums               :   836      626.21s  20.338%  ------ ||
|| ngwf_gradient_batch                  :    48      731.20s  23.748%  ------ ||
|| ngwf_gradient_lnv                    :    12      755.27s  24.530%  ------ ||
|| density_on_dbl_grid                  :   209      967.22s  31.413%  ------ ||
|| hamiltonian_lhxc_calculate           :   204     1053.16s  34.204%  ------ ||
|| edft_calculate                       :    12     1766.23s  57.364%  ------ ||
|| ngwf_cg_optimise                     :     1     2946.28s  95.689%  ------ ||
|| total_time                           :     1     3079.01s 100.000%  ------ ||
================================================================================
Overhead of generating timer report: 
- 0 ms averaging over threads,
- 6 ms ensuring consistency across MPI ranks,
- 0 ms printing in order.

Job completed: 29-02-2020 11:33 (-0000)

