 +---------------------------------------------------------------+
 |                                                               |
 |        ####### #     # ####### ####### ####### ######         |
 |        #     # ##    # #          #    #       #     #        |
 |        #     # # #   # #          #    #       #     #        |
 |        #     # #  #  # #####      #    #####   ######         |
 |        #     # #   # # #          #    #       #              |
 |        #     # #    ## #          #    #       #              |
 |        ####### #     # #######    #    ####### #              |
 |                                                               |
 |        Linear-Scaling Ab Initio Total Energy Program          |
 |                                                               |
 |          Release for academic collaborators of ODG            |
 |                                             Version 5.3.2.12  |
 |                                                               |
 +---------------------------------------------------------------+
 |                                                               |
 |  Authors:                                                     |
 |  Jacek Dziedzic, Peter D. Haynes, Nicholas D. M. Hine,        |
 |  Arash. A. Mostofi, Mike C. Payne and Chris-Kriton Skylaris   |
 |                                                               |
 |  Contributors:                                                |
 |  J. Aarons, L. Andrinopoulos, P. W. Avraam, R. A. Bell,       |
 |  A. Bhandari, G. A. Bramley, R. J. Charlton, S. J. Clark,     |
 |  R. J. Clements, G. C. Constantinescu, F. Corsetti,           |
 |  N. Corsini, O. Dieguez, S. M. M. Dubois, K. K. B. Duff,      |
 |  J. M. Escartin, A. Greco, H. Helal, Q. O. Hill, L. P. Lee,   |
 |  J.-H. Li, E. B. Linscott, G. Moynihan, D. D. O`Regan,        |
 |  O. K. Okan, M. J. S. Phipps, C. J. Pickard,                  |
 |  J. C. A. Prentice, M. I. J. Probert, L. E. Ratcliff,         |
 |  M. Robinson, A. Ruiz Serrano, J. S. Spencer, E. W. Tait,     |
 |  G. Teobaldi, D. Turban, V. Vitale, K. A. Wilkinson,          |
 |  C. Weber, J. C. Womack, N. Yeung and T. J. Zuehlsdorff       |
 |                                                               |
 |                                   Copyright (c) 2004-2020     |
 |                                                               |
 |  Please cite:                                                 |
 |  "Introducing ONETEP: Linear-scaling density functional       |
 |   simulations on parallel computers".                         |
 |   C.-K. Skylaris, P. D. Haynes, A. A. Mostofi, M. C. Payne.   |
 |   J. Chem. Phys. 122 084119 (2005).                           |
 |                                                               |
 |          in all publications arising from your use of ONETEP. |
 |                                                               |
 +---------------------------------------------------------------+
 |                                                               |
 |   ONETEP is based on developments described in the following  |
 |   publications:                                               |
 |                                                               |
 |  "Nonorthogonal generalized Wannier function pseudopotential  |
 |   plane-wave method".                                         |
 |   C.-K. Skylaris, A. A. Mostofi, P. D. Haynes, O. Dieguez,    |
 |   M. C. Payne.                                                |
 |   Phys. Rev. B 66 035119 (2002).                              |
 |                                                               |
 |  "Preconditioned iterative minimization for linear-scaling    |
 |   electronic structure calculations".                         |
 |   A. A. Mostofi, P. D. Haynes, C.-K. Skylaris, M. C. Payne.   |
 |   J. Chem. Phys. 119(17), pp.8842-8848 (2003).                |
 |                                                               |
 |  "Total-energy calculations on a real space grid with         |
 |   localized functions and a plane-wave basis".                |
 |   A. A. Mostofi, C.-K. Skylaris, P. D. Haynes, M. C. Payne.   |
 |   Comput. Phys. Commun. 147, pp.788-802 (2002).               |
 |                                                               |
 |  "Accurate kinetic energy evaluation in electronic structure  |
 |   calculations with localized functions on real space grids"  |
 |   C.-K. Skylaris, A. A. Mostofi, P. D. Haynes, C. J. Pickard, |
 |   M. C. Payne.                                                |
 |   Comput. Phys. Commun. 140, pp.315-322 (2001).               |
 |                                                               |
 |  "Accurate ionic forces and geometry optimization in linear-  |
 |   scaling density-functional theory with local orbitals"      |
 |   N. D. M. Hine, M. Robinson, P. D. Haynes, C.-K. Skylaris,   |
 |   M. C. Payne, and A. A. Mostofi.                             |
 |   Phys. Rev. B 83 195102 (2011).                              |
 |                                                               |
 +---------------------------------------------------------------+

Job started: 05-03-2020 21:20 (-0000)
 
Reading parameters from file "4.158936_GO_manual_4x64graphite.dat" ...

WARNING: "cutoff_energy" not specified, but "psinc_spacing" specified.
         Using the latter to set the KE cutoff energy to  732.32021eV,
         thus *overriding* the default.

... done

If your calculation crashes here, before "Checking processes and threads..."
is displayed, then your stack size is insufficient.
If so, use "ulimit -s unlimited" at runtime.
You can disable this check with "check_stack_size F".

Checking processes and threads...
   Determining the default number of threads...
      No default threads set at compilation time: defaulting to 1.
      OpenMP library call suggests 4 threads.
      Hybrid MPI-OpenMP compilation detected.
      Number of MPI processes > 1.
      OMP_NUM_THREADS environment variable present and
      its value matches the one obtained from the OpenMP library call.
      Using this value as default.
      Default threads: 4
      Default applies to threads_max and threads_num_fftboxes.
      Settings in the input file override this default.
   ... done

   Running with 40 MPI processes.
   There are 10 MPI processes running on the same node as the root process.
   Each MPI process is using: 
               1 threads for simulation cell FFTs.
               1 threads for parallel FFT box operations.
               4 threads for loops over batched FFT box operations.
               4 threads in other parallel regions.
... done

Basic input checks...
Resetting ngwf_cg_rotate to TRUE for EDFT calculations
... done

Reading geometry and species blocks from file "4.158936_GO_manual_4x64graphite.dat" ...
    
  PSINC grid spacing along a1 set to   0.511215680000a0 from input file.
  PSINC grid spacing along a2 set to   0.531284090000a0 from input file.
  PSINC grid spacing along a3 set to   0.507049430000a0 from input file.
  Number of PPD points along a3 set to 1.  This is 
  the default value, it may have been provided also in the input file.
... done
 Writing xyz coordinates to file "4.158936_GO_manual_4x64graphite.xyz" ... done


--------------------------------------------------------------------------------
---------------------------------- INPUT FILE ----------------------------------
--------------------------------------------------------------------------------

task : singlepoint                                                              
do_properties : true                                                            
dx_format T                                                                     
edft T                                                                          
output_detail VERBOSE                                                           
write_xyz T                                                                     
xc_functional VDWDF                                                             
PSINC_SPACING 0.51121568 0.53128409 0.50704943                                  
paw T                                                                           
pdos_max_l = 2                                                                  
dos_smear  0.1 eV                                                               
popn_calculate T                                                                
PDOS_PSEUDOATOMIC T                                                             
PDOS_REDUCE_SWS F                                                               
PDOS_CONSTRUCT_BASIS F                                                          
PDOS_LOWDIN T                                                                   
PDOS_ORTH_ATOM_BLOCKS F                                                         
PDOS_LCAO_OPTIMIZE F                                                            
pdos_optados_output T                                                           
homo_plot 0                                                                     
lumo_plot 0                                                                     
homo_dens_plot -1                                                               
lumo_dens_plot -1                                                               
%BLOCK SPECIES                                                                  
C C 6 4 9.0                                                                     
%ENDBLOCK SPECIES                                                               
%BLOCK SPECIES_POT                                                              
C "~/pp/paw/c_pbe_abinit.paw"                                                   
%ENDBLOCK SPECIES_POT                                                           
%BLOCK SPECIES_ATOMIC_SET                                                       
C "SOLVE conf=2s2 2p2"                                                          
%ENDBLOCK SPECIES_ATOMIC_SET                                                    
%BLOCK LATTICE_CART                                                             
32.21  0.00  0.00                                                               
0.00 18.59  0.00                                                                
0.00  0.00 78.59                                                                
%ENDBLOCK LATTICE_CART                                                          
%BLOCK POSITIONS_ABS                                                            
C  0.00  0.00  3.93                                                             
C  0.00  0.00 19.65                                                             
C  0.00  0.00 35.37                                                             
C  0.00  0.00 51.09                                                             
C  0.00  0.00 66.80                                                             
C  0.00  4.65  3.93                                                             
C  0.00  4.65 19.65                                                             
C  0.00  4.65 35.37                                                             
C  0.00  4.65 51.09                                                             
C  0.00  4.65 66.80                                                             
C  4.03  2.32  3.93                                                             
C  4.03  2.32 19.65                                                             
C  4.03  2.32 35.37                                                             
C  4.03  2.32 51.09                                                             
C  4.03  2.32 66.80                                                             
C  8.05  0.00  3.93                                                             
C  8.05  0.00 19.65                                                             
C  8.05  0.00 35.37                                                             
C  8.05  0.00 51.09                                                             
C  8.05  0.00 66.80                                                             
C  0.00  9.30  3.93                                                             
C  0.00  9.30 19.65                                                             
C  0.00  9.30 35.37                                                             
C  0.00  9.30 51.09                                                             
C  0.00  9.30 66.80                                                             
C  4.03  6.97  3.93                                                             
C  4.03  6.97 19.65                                                             
C  4.03  6.97 35.37                                                             
C  4.03  6.97 51.09                                                             
C  4.03  6.97 66.80                                                             
C  8.05  4.65  3.93                                                             
C  8.05  4.65 19.65                                                             
C  8.05  4.65 35.37                                                             
C  8.05  4.65 51.09                                                             
C  8.05  4.65 66.80                                                             
C 12.08  2.32  3.93                                                             
C 12.08  2.32 19.65                                                             
C 12.08  2.32 35.37                                                             
C 12.08  2.32 51.09                                                             
C 12.08  2.32 66.80                                                             
C 16.10  0.00  3.93                                                             
C 16.10  0.00 19.65                                                             
C 16.10  0.00 35.37                                                             
C 16.10  0.00 51.09                                                             
C 16.10  0.00 66.80                                                             
C  0.00 13.95  3.93                                                             
C  0.00 13.95 19.65                                                             
C  0.00 13.95 35.37                                                             
C  0.00 13.95 51.09                                                             
C  0.00 13.95 66.80                                                             
C  4.03 11.62  3.93                                                             
C  4.03 11.62 19.65                                                             
C  4.03 11.62 35.37                                                             
C  4.03 11.62 51.09                                                             
C  4.03 11.62 66.80                                                             
C  8.05  9.30  3.93                                                             
C  8.05  9.30 19.65                                                             
C  8.05  9.30 35.37                                                             
C  8.05  9.30 51.09                                                             
C  8.05  9.30 66.80                                                             
C 12.08  6.97  3.93                                                             
C 12.08  6.97 19.65                                                             
C 12.08  6.97 35.37                                                             
C 12.08  6.97 51.09                                                             
C 12.08  6.97 66.80                                                             
C 16.10  4.65  3.93                                                             
C 16.10  4.65 19.65                                                             
C 16.10  4.65 35.37                                                             
C 16.10  4.65 51.09                                                             
C 16.10  4.65 66.80                                                             
C 20.13  2.32  3.93                                                             
C 20.13  2.32 19.65                                                             
C 20.13  2.32 35.37                                                             
C 20.13  2.32 51.09                                                             
C 20.13  2.32 66.80                                                             
C 24.16  0.00  3.93                                                             
C 24.16  0.00 19.65                                                             
C 24.16  0.00 35.37                                                             
C 24.16  0.00 51.09                                                             
C 24.16  0.00 66.80                                                             
C  4.03 16.27  3.93                                                             
C  4.03 16.27 19.65                                                             
C  4.03 16.27 35.37                                                             
C  4.03 16.27 51.09                                                             
C  4.03 16.27 66.80                                                             
C  8.05 13.95  3.93                                                             
C  8.05 13.95 19.65                                                             
C  8.05 13.95 35.37                                                             
C  8.05 13.95 51.09                                                             
C  8.05 13.95 66.80                                                             
C 12.08 11.62  3.93                                                             
C 12.08 11.62 19.65                                                             
C 12.08 11.62 35.37                                                             
C 12.08 11.62 51.09                                                             
C 12.08 11.62 66.80                                                             
C 16.10  9.30  3.93                                                             
C 16.10  9.30 19.65                                                             
C 16.10  9.30 35.37                                                             
C 16.10  9.30 51.09                                                             
C 16.10  9.30 66.80                                                             
C 20.13  6.97  3.93                                                             
C 20.13  6.97 19.65                                                             
C 20.13  6.97 35.37                                                             
C 20.13  6.97 51.09                                                             
C 20.13  6.97 66.80                                                             
C 24.16  4.65  3.93                                                             
C 24.16  4.65 19.65                                                             
C 24.16  4.65 35.37                                                             
C 24.16  4.65 51.09                                                             
C 24.16  4.65 66.80                                                             
C 28.18  2.32  3.93                                                             
C 28.18  2.32 19.65                                                             
C 28.18  2.32 35.37                                                             
C 28.18  2.32 51.09                                                             
C 28.18  2.32 66.80                                                             
C 12.08 16.27  3.93                                                             
C 12.08 16.27 19.65                                                             
C 12.08 16.27 35.37                                                             
C 12.08 16.27 51.09                                                             
C 12.08 16.27 66.80                                                             
C 16.10 13.95  3.93                                                             
C 16.10 13.95 19.65                                                             
C 16.10 13.95 35.37                                                             
C 16.10 13.95 51.09                                                             
C 16.10 13.95 66.80                                                             
C 20.13 11.62  3.93                                                             
C 20.13 11.62 19.65                                                             
C 20.13 11.62 35.37                                                             
C 20.13 11.62 51.09                                                             
C 20.13 11.62 66.80                                                             
C 24.16  9.30  3.93                                                             
C 24.16  9.30 19.65                                                             
C 24.16  9.30 35.37                                                             
C 24.16  9.30 51.09                                                             
C 24.16  9.30 66.80                                                             
C 28.18  6.97  3.93                                                             
C 28.18  6.97 19.65                                                             
C 28.18  6.97 35.37                                                             
C 28.18  6.97 51.09                                                             
C 28.18  6.97 66.80                                                             
C 20.13 16.27  3.93                                                             
C 20.13 16.27 19.65                                                             
C 20.13 16.27 35.37                                                             
C 20.13 16.27 51.09                                                             
C 20.13 16.27 66.80                                                             
C 24.16 13.95  3.93                                                             
C 24.16 13.95 19.65                                                             
C 24.16 13.95 35.37                                                             
C 24.16 13.95 51.09                                                             
C 24.16 13.95 66.80                                                             
C 28.18 11.62  3.93                                                             
C 28.18 11.62 19.65                                                             
C 28.18 11.62 35.37                                                             
C 28.18 11.62 51.09                                                             
C 28.18 11.62 66.80                                                             
C 28.18 16.27  3.93                                                             
C 28.18 16.27 19.65                                                             
C 28.18 16.27 35.37                                                             
C 28.18 16.27 51.09                                                             
C 28.18 16.27 66.80                                                             
C  0.00  0.00 11.79                                                             
C  0.00  0.00 27.51                                                             
C  0.00  0.00 43.23                                                             
C  0.00  0.00 58.94                                                             
C  0.00  0.00 74.66                                                             
C  0.00  4.65 11.79                                                             
C  0.00  4.65 27.51                                                             
C  0.00  4.65 43.23                                                             
C  0.00  4.65 58.94                                                             
C  0.00  4.65 74.66                                                             
C  4.03  2.32 11.79                                                             
C  4.03  2.32 27.51                                                             
C  4.03  2.32 43.23                                                             
C  4.03  2.32 58.94                                                             
C  4.03  2.32 74.66                                                             
C  8.05  0.00 11.79                                                             
C  8.05  0.00 27.51                                                             
C  8.05  0.00 43.23                                                             
C  8.05  0.00 58.94                                                             
C  8.05  0.00 74.66                                                             
C  0.00  9.30 11.79                                                             
C  0.00  9.30 27.51                                                             
C  0.00  9.30 43.23                                                             
C  0.00  9.30 58.94                                                             
C  0.00  9.30 74.66                                                             
C  4.03  6.97 11.79                                                             
C  4.03  6.97 27.51                                                             
C  4.03  6.97 43.23                                                             
C  4.03  6.97 58.94                                                             
C  4.03  6.97 74.66                                                             
C  8.05  4.65 11.79                                                             
C  8.05  4.65 27.51                                                             
C  8.05  4.65 43.23                                                             
C  8.05  4.65 58.94                                                             
C  8.05  4.65 74.66                                                             
C 12.08  2.32 11.79                                                             
C 12.08  2.32 27.51                                                             
C 12.08  2.32 43.23                                                             
C 12.08  2.32 58.94                                                             
C 12.08  2.32 74.66                                                             
C 16.10  0.00 11.79                                                             
C 16.10  0.00 27.51                                                             
C 16.10  0.00 43.23                                                             
C 16.10  0.00 58.94                                                             
C 16.10  0.00 74.66                                                             
C  0.00 13.95 11.79                                                             
C  0.00 13.95 27.51                                                             
C  0.00 13.95 43.23                                                             
C  0.00 13.95 58.94                                                             
C  0.00 13.95 74.66                                                             
C  4.03 11.62 11.79                                                             
C  4.03 11.62 27.51                                                             
C  4.03 11.62 43.23                                                             
C  4.03 11.62 58.94                                                             
C  4.03 11.62 74.66                                                             
C  8.05  9.30 11.79                                                             
C  8.05  9.30 27.51                                                             
C  8.05  9.30 43.23                                                             
C  8.05  9.30 58.94                                                             
C  8.05  9.30 74.66                                                             
C 12.08  6.97 11.79                                                             
C 12.08  6.97 27.51                                                             
C 12.08  6.97 43.23                                                             
C 12.08  6.97 58.94                                                             
C 12.08  6.97 74.66                                                             
C 16.10  4.65 11.79                                                             
C 16.10  4.65 27.51                                                             
C 16.10  4.65 43.23                                                             
C 16.10  4.65 58.94                                                             
C 16.10  4.65 74.66                                                             
C 20.13  2.32 11.79                                                             
C 20.13  2.32 27.51                                                             
C 20.13  2.32 43.23                                                             
C 20.13  2.32 58.94                                                             
C 20.13  2.32 74.66                                                             
C 24.16  0.00 11.79                                                             
C 24.16  0.00 27.51                                                             
C 24.16  0.00 43.23                                                             
C 24.16  0.00 58.94                                                             
C 24.16  0.00 74.66                                                             
C  4.03 16.27 11.79                                                             
C  4.03 16.27 27.51                                                             
C  4.03 16.27 43.23                                                             
C  4.03 16.27 58.94                                                             
C  4.03 16.27 74.66                                                             
C  8.05 13.95 11.79                                                             
C  8.05 13.95 27.51                                                             
C  8.05 13.95 43.23                                                             
C  8.05 13.95 58.94                                                             
C  8.05 13.95 74.66                                                             
C 12.08 11.62 11.79                                                             
C 12.08 11.62 27.51                                                             
C 12.08 11.62 43.23                                                             
C 12.08 11.62 58.94                                                             
C 12.08 11.62 74.66                                                             
C 16.10  9.30 11.79                                                             
C 16.10  9.30 27.51                                                             
C 16.10  9.30 43.23                                                             
C 16.10  9.30 58.94                                                             
C 16.10  9.30 74.66                                                             
C 20.13  6.97 11.79                                                             
C 20.13  6.97 27.51                                                             
C 20.13  6.97 43.23                                                             
C 20.13  6.97 58.94                                                             
C 20.13  6.97 74.66                                                             
C 24.16  4.65 11.79                                                             
C 24.16  4.65 27.51                                                             
C 24.16  4.65 43.23                                                             
C 24.16  4.65 58.94                                                             
C 24.16  4.65 74.66                                                             
C 28.18  2.32 11.79                                                             
C 28.18  2.32 27.51                                                             
C 28.18  2.32 43.23                                                             
C 28.18  2.32 58.94                                                             
C 28.18  2.32 74.66                                                             
C 12.08 16.27 11.79                                                             
C 12.08 16.27 27.51                                                             
C 12.08 16.27 43.23                                                             
C 12.08 16.27 58.94                                                             
C 12.08 16.27 74.66                                                             
C 16.10 13.95 11.79                                                             
C 16.10 13.95 27.51                                                             
C 16.10 13.95 43.23                                                             
C 16.10 13.95 58.94                                                             
C 16.10 13.95 74.66                                                             
C 20.13 11.62 11.79                                                             
C 20.13 11.62 27.51                                                             
C 20.13 11.62 43.23                                                             
C 20.13 11.62 58.94                                                             
C 20.13 11.62 74.66                                                             
C 24.16  9.30 11.79                                                             
C 24.16  9.30 27.51                                                             
C 24.16  9.30 43.23                                                             
C 24.16  9.30 58.94                                                             
C 24.16  9.30 74.66                                                             
C 28.18  6.97 11.79                                                             
C 28.18  6.97 27.51                                                             
C 28.18  6.97 43.23                                                             
C 28.18  6.97 58.94                                                             
C 28.18  6.97 74.66                                                             
C 20.13 16.27 11.79                                                             
C 20.13 16.27 27.51                                                             
C 20.13 16.27 43.23                                                             
C 20.13 16.27 58.94                                                             
C 20.13 16.27 74.66                                                             
C 24.16 13.95 11.79                                                             
C 24.16 13.95 27.51                                                             
C 24.16 13.95 43.23                                                             
C 24.16 13.95 58.94                                                             
C 24.16 13.95 74.66                                                             
C 28.18 11.62 11.79                                                             
C 28.18 11.62 27.51                                                             
C 28.18 11.62 43.23                                                             
C 28.18 11.62 58.94                                                             
C 28.18 11.62 74.66                                                             
C 28.18 16.27 11.79                                                             
C 28.18 16.27 27.51                                                             
C 28.18 16.27 43.23                                                             
C 28.18 16.27 58.94                                                             
C 28.18 16.27 74.66                                                             
C  1.34  2.32  3.93                                                             
C  1.34  2.32 19.65                                                             
C  1.34  2.32 35.37                                                             
C  1.34  2.32 51.09                                                             
C  1.34  2.32 66.80                                                             
C  5.37  0.00  3.93                                                             
C  5.37  0.00 19.65                                                             
C  5.37  0.00 35.37                                                             
C  5.37  0.00 51.09                                                             
C  5.37  0.00 66.80                                                             
C  1.34  6.97  3.93                                                             
C  1.34  6.97 19.65                                                             
C  1.34  6.97 35.37                                                             
C  1.34  6.97 51.09                                                             
C  1.34  6.97 66.80                                                             
C  5.37  4.65  3.93                                                             
C  5.37  4.65 19.65                                                             
C  5.37  4.65 35.37                                                             
C  5.37  4.65 51.09                                                             
C  5.37  4.65 66.80                                                             
C  9.39  2.32  3.93                                                             
C  9.39  2.32 19.65                                                             
C  9.39  2.32 35.37                                                             
C  9.39  2.32 51.09                                                             
C  9.39  2.32 66.80                                                             
C 13.42  0.00  3.93                                                             
C 13.42  0.00 19.65                                                             
C 13.42  0.00 35.37                                                             
C 13.42  0.00 51.09                                                             
C 13.42  0.00 66.80                                                             
C  1.34 11.62  3.93                                                             
C  1.34 11.62 19.65                                                             
C  1.34 11.62 35.37                                                             
C  1.34 11.62 51.09                                                             
C  1.34 11.62 66.80                                                             
C  5.37  9.30  3.93                                                             
C  5.37  9.30 19.65                                                             
C  5.37  9.30 35.37                                                             
C  5.37  9.30 51.09                                                             
C  5.37  9.30 66.80                                                             
C  9.39  6.97  3.93                                                             
C  9.39  6.97 19.65                                                             
C  9.39  6.97 35.37                                                             
C  9.39  6.97 51.09                                                             
C  9.39  6.97 66.80                                                             
C 13.42  4.65  3.93                                                             
C 13.42  4.65 19.65                                                             
C 13.42  4.65 35.37                                                             
C 13.42  4.65 51.09                                                             
C 13.42  4.65 66.80                                                             
C 17.45  2.32  3.93                                                             
C 17.45  2.32 19.65                                                             
C 17.45  2.32 35.37                                                             
C 17.45  2.32 51.09                                                             
C 17.45  2.32 66.80                                                             
C 21.47  0.00  3.93                                                             
C 21.47  0.00 19.65                                                             
C 21.47  0.00 35.37                                                             
C 21.47  0.00 51.09                                                             
C 21.47  0.00 66.80                                                             
C  1.34 16.27  3.93                                                             
C  1.34 16.27 19.65                                                             
C  1.34 16.27 35.37                                                             
C  1.34 16.27 51.09                                                             
C  1.34 16.27 66.80                                                             
C  5.37 13.95  3.93                                                             
C  5.37 13.95 19.65                                                             
C  5.37 13.95 35.37                                                             
C  5.37 13.95 51.09                                                             
C  5.37 13.95 66.80                                                             
C  9.39 11.62  3.93                                                             
C  9.39 11.62 19.65                                                             
C  9.39 11.62 35.37                                                             
C  9.39 11.62 51.09                                                             
C  9.39 11.62 66.80                                                             
C 13.42  9.30  3.93                                                             
C 13.42  9.30 19.65                                                             
C 13.42  9.30 35.37                                                             
C 13.42  9.30 51.09                                                             
C 13.42  9.30 66.80                                                             
C 17.45  6.97  3.93                                                             
C 17.45  6.97 19.65                                                             
C 17.45  6.97 35.37                                                             
C 17.45  6.97 51.09                                                             
C 17.45  6.97 66.80                                                             
C 21.47  4.65  3.93                                                             
C 21.47  4.65 19.65                                                             
C 21.47  4.65 35.37                                                             
C 21.47  4.65 51.09                                                             
C 21.47  4.65 66.80                                                             
C 25.50  2.32  3.93                                                             
C 25.50  2.32 19.65                                                             
C 25.50  2.32 35.37                                                             
C 25.50  2.32 51.09                                                             
C 25.50  2.32 66.80                                                             
C 29.52  0.00  3.93                                                             
C 29.52  0.00 19.65                                                             
C 29.52  0.00 35.37                                                             
C 29.52  0.00 51.09                                                             
C 29.52  0.00 66.80                                                             
C  9.39 16.27  3.93                                                             
C  9.39 16.27 19.65                                                             
C  9.39 16.27 35.37                                                             
C  9.39 16.27 51.09                                                             
C  9.39 16.27 66.80                                                             
C 13.42 13.95  3.93                                                             
C 13.42 13.95 19.65                                                             
C 13.42 13.95 35.37                                                             
C 13.42 13.95 51.09                                                             
C 13.42 13.95 66.80                                                             
C 17.45 11.62  3.93                                                             
C 17.45 11.62 19.65                                                             
C 17.45 11.62 35.37                                                             
C 17.45 11.62 51.09                                                             
C 17.45 11.62 66.80                                                             
C 21.47  9.30  3.93                                                             
C 21.47  9.30 19.65                                                             
C 21.47  9.30 35.37                                                             
C 21.47  9.30 51.09                                                             
C 21.47  9.30 66.80                                                             
C 25.50  6.97  3.93                                                             
C 25.50  6.97 19.65                                                             
C 25.50  6.97 35.37                                                             
C 25.50  6.97 51.09                                                             
C 25.50  6.97 66.80                                                             
C 29.52  4.65  3.93                                                             
C 29.52  4.65 19.65                                                             
C 29.52  4.65 35.37                                                             
C 29.52  4.65 51.09                                                             
C 29.52  4.65 66.80                                                             
C 17.45 16.27  3.93                                                             
C 17.45 16.27 19.65                                                             
C 17.45 16.27 35.37                                                             
C 17.45 16.27 51.09                                                             
C 17.45 16.27 66.80                                                             
C 21.47 13.95  3.93                                                             
C 21.47 13.95 19.65                                                             
C 21.47 13.95 35.37                                                             
C 21.47 13.95 51.09                                                             
C 21.47 13.95 66.80                                                             
C 25.50 11.62  3.93                                                             
C 25.50 11.62 19.65                                                             
C 25.50 11.62 35.37                                                             
C 25.50 11.62 51.09                                                             
C 25.50 11.62 66.80                                                             
C 29.52  9.30  3.93                                                             
C 29.52  9.30 19.65                                                             
C 29.52  9.30 35.37                                                             
C 29.52  9.30 51.09                                                             
C 29.52  9.30 66.80                                                             
C 25.50 16.27  3.93                                                             
C 25.50 16.27 19.65                                                             
C 25.50 16.27 35.37                                                             
C 25.50 16.27 51.09                                                             
C 25.50 16.27 66.80                                                             
C 29.52 13.95  3.93                                                             
C 29.52 13.95 19.65                                                             
C 29.52 13.95 35.37                                                             
C 29.52 13.95 51.09                                                             
C 29.52 13.95 66.80                                                             
C  2.68  0.00 11.79                                                             
C  2.68  0.00 27.51                                                             
C  2.68  0.00 43.23                                                             
C  2.68  0.00 58.94                                                             
C  2.68  0.00 74.66                                                             
C  2.68  4.65 11.79                                                             
C  2.68  4.65 27.51                                                             
C  2.68  4.65 43.23                                                             
C  2.68  4.65 58.94                                                             
C  2.68  4.65 74.66                                                             
C  6.71  2.32 11.79                                                             
C  6.71  2.32 27.51                                                             
C  6.71  2.32 43.23                                                             
C  6.71  2.32 58.94                                                             
C  6.71  2.32 74.66                                                             
C 10.74  0.00 11.79                                                             
C 10.74  0.00 27.51                                                             
C 10.74  0.00 43.23                                                             
C 10.74  0.00 58.94                                                             
C 10.74  0.00 74.66                                                             
C  2.68  9.30 11.79                                                             
C  2.68  9.30 27.51                                                             
C  2.68  9.30 43.23                                                             
C  2.68  9.30 58.94                                                             
C  2.68  9.30 74.66                                                             
C  6.71  6.97 11.79                                                             
C  6.71  6.97 27.51                                                             
C  6.71  6.97 43.23                                                             
C  6.71  6.97 58.94                                                             
C  6.71  6.97 74.66                                                             
C 10.74  4.65 11.79                                                             
C 10.74  4.65 27.51                                                             
C 10.74  4.65 43.23                                                             
C 10.74  4.65 58.94                                                             
C 10.74  4.65 74.66                                                             
C 14.76  2.32 11.79                                                             
C 14.76  2.32 27.51                                                             
C 14.76  2.32 43.23                                                             
C 14.76  2.32 58.94                                                             
C 14.76  2.32 74.66                                                             
C 18.79  0.00 11.79                                                             
C 18.79  0.00 27.51                                                             
C 18.79  0.00 43.23                                                             
C 18.79  0.00 58.94                                                             
C 18.79  0.00 74.66                                                             
C  2.68 13.95 11.79                                                             
C  2.68 13.95 27.51                                                             
C  2.68 13.95 43.23                                                             
C  2.68 13.95 58.94                                                             
C  2.68 13.95 74.66                                                             
C  6.71 11.62 11.79                                                             
C  6.71 11.62 27.51                                                             
C  6.71 11.62 43.23                                                             
C  6.71 11.62 58.94                                                             
C  6.71 11.62 74.66                                                             
C 10.74  9.30 11.79                                                             
C 10.74  9.30 27.51                                                             
C 10.74  9.30 43.23                                                             
C 10.74  9.30 58.94                                                             
C 10.74  9.30 74.66                                                             
C 14.76  6.97 11.79                                                             
C 14.76  6.97 27.51                                                             
C 14.76  6.97 43.23                                                             
C 14.76  6.97 58.94                                                             
C 14.76  6.97 74.66                                                             
C 18.79  4.65 11.79                                                             
C 18.79  4.65 27.51                                                             
C 18.79  4.65 43.23                                                             
C 18.79  4.65 58.94                                                             
C 18.79  4.65 74.66                                                             
C 22.81  2.32 11.79                                                             
C 22.81  2.32 27.51                                                             
C 22.81  2.32 43.23                                                             
C 22.81  2.32 58.94                                                             
C 22.81  2.32 74.66                                                             
C 26.84  0.00 11.79                                                             
C 26.84  0.00 27.51                                                             
C 26.84  0.00 43.23                                                             
C 26.84  0.00 58.94                                                             
C 26.84  0.00 74.66                                                             
C  6.71 16.27 11.79                                                             
C  6.71 16.27 27.51                                                             
C  6.71 16.27 43.23                                                             
C  6.71 16.27 58.94                                                             
C  6.71 16.27 74.66                                                             
C 10.74 13.95 11.79                                                             
C 10.74 13.95 27.51                                                             
C 10.74 13.95 43.23                                                             
C 10.74 13.95 58.94                                                             
C 10.74 13.95 74.66                                                             
C 14.76 11.62 11.79                                                             
C 14.76 11.62 27.51                                                             
C 14.76 11.62 43.23                                                             
C 14.76 11.62 58.94                                                             
C 14.76 11.62 74.66                                                             
C 18.79  9.30 11.79                                                             
C 18.79  9.30 27.51                                                             
C 18.79  9.30 43.23                                                             
C 18.79  9.30 58.94                                                             
C 18.79  9.30 74.66                                                             
C 22.81  6.97 11.79                                                             
C 22.81  6.97 27.51                                                             
C 22.81  6.97 43.23                                                             
C 22.81  6.97 58.94                                                             
C 22.81  6.97 74.66                                                             
C 26.84  4.65 11.79                                                             
C 26.84  4.65 27.51                                                             
C 26.84  4.65 43.23                                                             
C 26.84  4.65 58.94                                                             
C 26.84  4.65 74.66                                                             
C 30.86  2.32 11.79                                                             
C 30.86  2.32 27.51                                                             
C 30.86  2.32 43.23                                                             
C 30.86  2.32 58.94                                                             
C 30.86  2.32 74.66                                                             
C 14.76 16.27 11.79                                                             
C 14.76 16.27 27.51                                                             
C 14.76 16.27 43.23                                                             
C 14.76 16.27 58.94                                                             
C 14.76 16.27 74.66                                                             
C 18.79 13.95 11.79                                                             
C 18.79 13.95 27.51                                                             
C 18.79 13.95 43.23                                                             
C 18.79 13.95 58.94                                                             
C 18.79 13.95 74.66                                                             
C 22.81 11.62 11.79                                                             
C 22.81 11.62 27.51                                                             
C 22.81 11.62 43.23                                                             
C 22.81 11.62 58.94                                                             
C 22.81 11.62 74.66                                                             
C 26.84  9.30 11.79                                                             
C 26.84  9.30 27.51                                                             
C 26.84  9.30 43.23                                                             
C 26.84  9.30 58.94                                                             
C 26.84  9.30 74.66                                                             
C 30.86  6.97 11.79                                                             
C 30.86  6.97 27.51                                                             
C 30.86  6.97 43.23                                                             
C 30.86  6.97 58.94                                                             
C 30.86  6.97 74.66                                                             
C 22.81 16.27 11.79                                                             
C 22.81 16.27 27.51                                                             
C 22.81 16.27 43.23                                                             
C 22.81 16.27 58.94                                                             
C 22.81 16.27 74.66                                                             
C 26.84 13.95 11.79                                                             
C 26.84 13.95 27.51                                                             
C 26.84 13.95 43.23                                                             
C 26.84 13.95 58.94                                                             
C 26.84 13.95 74.66                                                             
C 30.86 11.62 11.79                                                             
C 30.86 11.62 27.51                                                             
C 30.86 11.62 43.23                                                             
C 30.86 11.62 58.94                                                             
C 30.86 11.62 74.66                                                             
C 30.86 16.27 11.79                                                             
C 30.86 16.27 27.51                                                             
C 30.86 16.27 43.23                                                             
C 30.86 16.27 58.94                                                             
C 30.86 16.27 74.66                                                             
%ENDBLOCK POSITIONS_ABS                                                         

--------------------------------------------------------------------------------
-------------------------------- END INPUT FILE --------------------------------
--------------------------------------------------------------------------------


 
<<<<<<<<<<<<<<<<<<<<<<<<<<<<<<<<< Full system >>>>>>>>>>>>>>>>>>>>>>>>>>>>>>>>>>
<<<<<<<<<<<<<<<<<<<<<<<<<<< PAW Dataset information >>>>>>>>>>>>>>>>>>>>>>>>>>>
File: ~/pp/paw/c_pbe_abinit.paw; rc = 1.25 bohr; shape type =  3; rshape = 1.25 bohr;
  Atomic number:  6;  ionic charge:  4.000000
    Partial Wave 1: l = 0
    Partial Wave 2: l = 0
    Partial Wave 3: l = 1
    Partial Wave 4: l = 1
  Core charge supplied for Nonlinear Core Corrections
<<<<<<<<<<<<<<<<<<<<<<<<<<<<<<<<<<<<<<< >>>>>>>>>>>>>>>>>>>>>>>>>>>>>>>>>>>>>>>

-------------------------- Atom counting information ---------------------------
Symbol    Natoms    Nngwfs    Nprojs
  C        640      2560      5120
.......   ......    ......    ......
Totals:    640      2560      5120
--------------------------------------------------------------------------------

=============================== PSINC grid sizes ===============================
                      Simulation cell:   63 x  35 x 155
                              FFT-box:   63 x  35 x 117
                                  PPD:    7 x   5 x   1
Grid space d1=  0.511269841270a0 (KE cutoff=  29.06054Eh = 790.77748eV)
Grid space d2=  0.531142857143a0 (KE cutoff=  26.92659Eh = 732.70972eV)
Grid space d3=  0.507032258065a0 (KE cutoff=  29.54832Eh = 804.05075eV)
================================================================================
  
WARNING in cell_grid_distribute:
Average of less than one 23-slab per node, so workload cannot be
equally balanced between nodes.

********************* Fourier parallelisation information **********************
       Coarse grid (whole simulation cell) dimensions:     63    35   155
          Real-space ('12') slabs/node (min max mean):      3     4     3
         Recip-space ('23') slabs/node (min max mean):      0     1     0
********************************************************************************

********************* Fourier parallelisation information **********************
       Double grid (whole simulation cell) dimensions:    126    70   310
          Real-space ('12') slabs/node (min max mean):      7     8     7
         Recip-space ('23') slabs/node (min max mean):      1     2     1
********************************************************************************

Atom SCF Calculation for C  : Z (AE atom) =   6 : Z (PS atom) =   4
Config String: 2s2 2p2
Orbitals (num,occ):  2     2.00 2.00
Orbitals   (num,l):  2        0    1
Real-space Grid (nr,dr,rmax): 1293    0.0069659443    9.0000000000
Spherical Bessel Basis (nsws,lmax,cutoff):   37    2  161.4736382572
Confining potential (l,width,scale):  0    3.0000000000  100.0000000000
Confining potential (l,width,scale):  1    3.0000000000  100.0000000000
  1         -5.4966243538   -1.3415066196    4.5135257941   -1.6613421942
  2         -5.4660395227   -1.4172174419    4.4326892861   -1.6365362708
  3         -5.4759582348   -1.4337557188    4.4144498970   -1.6324663609
  4         -5.4843804720   -1.4365219414    4.4114201180   -1.6322033818
  5         -5.4882713954   -1.4381734139    4.4096331461   -1.6320227940
  6         -5.4902132675   -1.4390636620    4.4086785626   -1.6319270645
  7         -5.4912093711   -1.4395303631    4.4081823351   -1.6318789226
  8         -5.4917264140   -1.4397726342    4.4079268833   -1.6318551036
  9         -5.4919964206   -1.4398979410    4.4077958777   -1.6318434025
 10         -5.4921379132   -1.4399626875    4.4077287721   -1.6318376788
 11         -5.4922122245   -1.4399961532    4.4076943935   -1.6318348878
 12         -5.4922513136   -1.4400134684    4.4076767658   -1.6318335308
 13         -5.4922719001   -1.4400224400    4.4076677156   -1.6318328728
 14         -5.4922827535   -1.4400270959    4.4076630621   -1.6318325547
 15         -5.4922884809   -1.4400295164    4.4076606653   -1.6318324014
 16         -5.4922915059   -1.4400307770    4.4076594286   -1.6318323279
 17         -5.4922931051   -1.4400314347    4.4076587894   -1.6318322927
 18         -5.4922939512   -1.4400317785    4.4076584583   -1.6318322760
 19         -5.4922943993   -1.4400319585    4.4076582865   -1.6318322681
 20         -5.4922946368   -1.4400320529    4.4076581972   -1.6318322644
 21         -5.4922947627   -1.4400321025    4.4076581507   -1.6318322627
 22         -5.4922948296   -1.4400321287    4.4076581265   -1.6318322619
Atom SCF converged after  22 iterations to a total energy of     -5.49229483

Determining parallel strategy ...
... using space-filling curve
... NGWF load balancing: max     64;  min     64;  average     64
... Projector load balancing: max    128;  min    128;  average    128
... done
Calculating Ewald energy ...
              Ewald: real-space energy =    9527.449880
        Ewald: reciprocal-space energy =       1.255458
         Ewald: (sum_charge)**2 Energy =   10531.998999
         Ewald: (sum_charge**2) Energy =     832.627629
                          Ewald Energy =   -1835.921291
Basis initialisation ...... NGWF spheres initialised
... Projector spheres initialised
... NGWF tight boxes initialised
... Projector tight boxes initialised
... Tight-boxes gathered
... NGWF basis size (local,global):     692340  27886592
... PAW projector initialisation
... done

============================= Charge Augmentation ==============================
                           Aug box size:   11 x  11 x  11
================================================================================

========================== Sparse matrix information ===========================
                        Overlap matrix filling:  35.78%
                        Density kernel filling: 100.00%
              NGWF-Proj overlap matrix filling:   9.38%
                    Aug Overlap matrix filling:  39.69%
                    Hamiltonian matrix filling:  39.69%
                  NGWF diagonal matrix filling:   0.16%
                             KS matrix filling: 100.00% 
                           KSKS matrix filling: 100.00% 
================================================================================

Sparse matrix initialisation ... done
NGWF initialisation ...... done
============ Calculation of NGWF S^-1 using Hotelling algorithm ================ 
         Iteration  |  Frobenius norm and Maximum abs value    (of I-S*S_n^-1)   
               1       0.48831498E+02     0.97287858E+00
               2       0.47460802E+02     0.94771880E+00
               3       0.45464835E+02     0.90245300E+00
               4       0.42948493E+02     0.82773071E+00
               5       0.39973702E+02     0.72130883E+00
               6       0.36584698E+02     0.66764732E+00
               7       0.33143831E+02     0.62170832E+00
               8       0.29829468E+02     0.58192768E+00
               9       0.26118021E+02     0.53375789E+00
              10       0.21322199E+02     0.45600589E+00
              11       0.15149805E+02     0.33630547E+00
              12       0.83727604E+01     0.18842372E+00
              13       0.29658307E+01     0.64069474E-01
              14       0.44879722E+00     0.86974947E-02
              15       0.12546940E-01     0.20144129E-03
              16       0.13571969E-04     0.14879380E-06
              17       0.24337574E-10     0.16098234E-12
================================================================================
Calculating core density ...
================================= Core Density =================================
               Core den box size:   21 x  21 x  21
================================================================================
 ... done
Up spin density kernel initialisation ...... done

Writing density kernel to file "4.158936_GO_manual_4x64graphite.dkn" ... done

>>> Optimising kernel for current NGWFs:

--------------------------- Ensemble-DFT optimisation --------------------------
Running ScaLAPACK on   40 processor(s).

--------------------------------------------------------------------------------
  Iter                              Commutator    Free_energy(A=E-TS)     DeltaA
#    0                          0.000041932115   -3652.71419034164501  -3.65E+03

Step                       =       0.381966011250
Energy                     =   -3652.714165620072
Entropy (-TS)              =      -0.000024721332
Free energy (A=E-TS)       =   -3652.714190341645
Est. 0K Energy 0.5*(E+A)   =   -3652.714177980859
Residual Non-orthogonality =       0.000000000000
Residual N_electrons       =      -0.000000000241

Spin          Integrated_Ne            Fermi_level     Delta_Fermi_level
   1      2560.000000002066         0.116465545572              1.16E-01

                           Spin 1          
     Orb      H-eigenvalues     Occupancies
       1 |    -0.6062097600    1.0000000000 | 
                          ------
    1276 |     0.0797976795    0.9999906376 | 
    1277 |     0.0800453884    0.9999898758 | 
    1278 |     0.0804213899    0.9999885995 | 
    1279 |     0.0804243258    0.9999885890 | 
    1280 |     0.0806737409    0.9999876539 | 
                 - Gap at zero temperature -
    1281 |     0.1533375056    0.0000087781 | 
    1282 |     0.1533424193    0.0000087645 | 
    1283 |     0.1533449497    0.0000087575 | 
    1284 |     0.1533654409    0.0000087010 | 
    1285 |     0.1533681748    0.0000086935 | 
                          ------
    2560 |     0.9504030224    0.0000000000 | 

                       |  Abs_value |  Threshold | Converged
     Delta_Free_energy |   3.65E+03 |   1.00E-06 |        No
     Delta_Energy      |   3.65E+03 |   1.00E-04 |        No
     Delta_Entropy     |   2.47E-05 |   1.00E-04 |       Yes
     Commutator        |   4.19E-05 |   1.00E-05 |        No
     Delta_Fermi_level |   1.16E-01 |   1.00E-03 |        No

  Line search of the free energy minimum:
  Step_type        Step             Free_energy   Predicted_free_energy
.   Initial    0.000000    -3652.71419034164501
.    Trial1    0.381966    -3652.71614690366596
.    Trial2    0.618034    -3652.71668997604320
. Quadratic    0.751923    -3652.71677293187031    -3652.71677182521671

--------------------------------------------------------------------------------
  Iter                              Commutator    Free_energy(A=E-TS)     DeltaA
#    1                          0.000020352031   -3652.71677293187031  -2.58E-03

Step                       =       0.751923337979
Energy                     =   -3652.716748150158
Entropy (-TS)              =      -0.000024781455
Free energy (A=E-TS)       =   -3652.716772931870
Est. 0K Energy 0.5*(E+A)   =   -3652.716760541014
Residual Non-orthogonality =       0.000000000000
Residual N_electrons       =      -0.000000000258

Spin          Integrated_Ne            Fermi_level     Delta_Fermi_level
   1      2560.000000002301         0.111953668488             -4.51E-03

                           Spin 1          
     Orb      H-eigenvalues     Occupancies
       1 |    -0.6137652743    1.0000000000 | 
                          ------
    1276 |     0.0753255430    0.9999905193 | 
    1277 |     0.0755528149    0.9999898139 | 
    1278 |     0.0757620857    0.9999891181 | 
    1279 |     0.0757649319    0.9999891083 | 
    1280 |     0.0759935143    0.9999882931 | 
                 - Gap at zero temperature -
    1281 |     0.1487191411    0.0000090783 | 
    1282 |     0.1487314614    0.0000090430 | 
    1283 |     0.1487383199    0.0000090235 | 
    1284 |     0.1487634282    0.0000089522 | 
    1285 |     0.1487694260    0.0000089353 | 
                          ------
    2560 |     0.9428557156    0.0000000000 | 

                       |  Abs_value |  Threshold | Converged
     Delta_Free_energy |   2.58E-03 |   1.00E-06 |        No
     Delta_Energy      |   2.58E-03 |   1.00E-04 |        No
     Delta_Entropy     |   6.01E-08 |   1.00E-04 |       Yes
     Commutator        |   2.04E-05 |   1.00E-05 |        No
     Delta_Fermi_level |   4.51E-03 |   1.00E-03 |        No

  Line search of the free energy minimum:
  Step_type        Step             Free_energy   Predicted_free_energy
.   Initial    0.000000    -3652.71677293187031
.    Trial1    0.751923    -3652.71548506436648
.    Trial2    0.287209    -3652.71717578060907
. Quadratic    0.248218    -3652.71718601678822    -3652.71718597274730

--------------------------------------------------------------------------------
  Iter                              Commutator    Free_energy(A=E-TS)     DeltaA
#    2                          0.000008597232   -3652.71718601678822  -4.13E-04

Step                       =       0.248217746451
Energy                     =   -3652.717161241375
Entropy (-TS)              =      -0.000024775560
Free energy (A=E-TS)       =   -3652.717186016788
Est. 0K Energy 0.5*(E+A)   =   -3652.717173629082
Residual Non-orthogonality =       0.000000000000
Residual N_electrons       =       0.000000000147

Spin          Integrated_Ne            Fermi_level     Delta_Fermi_level
   1      2559.999999998686         0.111598130353             -3.56E-04

                           Spin 1          
     Orb      H-eigenvalues     Occupancies
       1 |    -0.6143758283    1.0000000000 | 
                          ------
    1276 |     0.0749236040    0.9999906572 | 
    1277 |     0.0751493244    0.9999899670 | 
    1278 |     0.0754349165    0.9999890202 | 
    1279 |     0.0754374967    0.9999890112 | 
    1280 |     0.0756646661    0.9999881940 | 
                 - Gap at zero temperature -
    1281 |     0.1483973521    0.0000089820 | 
    1282 |     0.1484095482    0.0000089475 | 
    1283 |     0.1484162206    0.0000089287 | 
    1284 |     0.1484421739    0.0000088558 | 
    1285 |     0.1484480064    0.0000088395 | 
                          ------
    2560 |     0.9422454017    0.0000000000 | 

                       |  Abs_value |  Threshold | Converged
     Delta_Free_energy |   4.13E-04 |   1.00E-06 |        No
     Delta_Energy      |   4.13E-04 |   1.00E-04 |        No
     Delta_Entropy     |   5.89E-09 |   1.00E-04 |       Yes
     Commutator        |   8.60E-06 |   1.00E-05 |       Yes
     Delta_Fermi_level |   3.56E-04 |   1.00E-03 |       Yes

  Line search of the free energy minimum:
  Step_type        Step             Free_energy   Predicted_free_energy
.   Initial    0.000000    -3652.71718601678822
.    Trial1    0.248218    -3652.71724920105407
.    Trial2    0.535373    -3652.71725980095016
. Quadratic    0.437197    -3652.71726371558862    -3652.71726371913883

--------------------------------------------------------------------------------
  Iter                              Commutator    Free_energy(A=E-TS)     DeltaA
#    3                          0.000005355977   -3652.71726371558862  -7.77E-05

Step                       =       0.437197484176
Energy                     =   -3652.717238952553
Entropy (-TS)              =      -0.000024763315
Free energy (A=E-TS)       =   -3652.717263715589
Est. 0K Energy 0.5*(E+A)   =   -3652.717251334071
Residual Non-orthogonality =       0.000000000000
Residual N_electrons       =       0.000000000279

Spin          Integrated_Ne            Fermi_level     Delta_Fermi_level
   1      2559.999999997486         0.111125168314             -4.73E-04

                           Spin 1          
     Orb      H-eigenvalues     Occupancies
       1 |    -0.6151737087    1.0000000000 | 
                          ------
    1276 |     0.0744209121    0.9999907445 | 
    1277 |     0.0746445805    0.9999900672 | 
    1278 |     0.0749706221    0.9999889901 | 
    1279 |     0.0749729378    0.9999889820 | 
    1280 |     0.0751981242    0.9999881700 | 
                 - Gap at zero temperature -
    1281 |     0.1479428250    0.0000089299 | 
    1282 |     0.1479550098    0.0000088956 | 
    1283 |     0.1479614896    0.0000088774 | 
    1284 |     0.1479885130    0.0000088020 | 
    1285 |     0.1479942134    0.0000087862 | 
                          ------
    2560 |     0.9414627361    0.0000000000 | 

                       |  Abs_value |  Threshold | Converged
     Delta_Free_energy |   7.77E-05 |   1.00E-06 |        No
     Delta_Energy      |   7.77E-05 |   1.00E-04 |       Yes
     Delta_Entropy     |   1.22E-08 |   1.00E-04 |       Yes
     Commutator        |   5.36E-06 |   1.00E-05 |       Yes
     Delta_Fermi_level |   4.73E-04 |   1.00E-03 |       Yes

  Line search of the free energy minimum:
  Step_type        Step             Free_energy   Predicted_free_energy
.   Initial    0.000000    -3652.71726371558862
.    Trial1    0.437197    -3652.71728255655808
.    Trial2    0.652169    -3652.71724506412511
. Quadratic    0.283208    -3652.71729046796600    -3652.71729046489600

--------------------------------------------------------------------------------
  Iter                              Commutator    Free_energy(A=E-TS)     DeltaA
#    4                          0.000003274525   -3652.71729046796600  -2.68E-05

Step                       =       0.283207817340
Energy                     =   -3652.717265711346
Entropy (-TS)              =      -0.000024756890
[...]
 C   160 -- C   385       -0.10      5.37000
 C   159 -- C   384       -0.10      5.37000
 C   158 -- C   383       -0.10      5.37000
 C   157 -- C   382       -0.10      5.37000
 C   156 -- C   381       -0.10      5.37000
 C   155 -- C   355       -0.10      5.37000
 C   154 -- C   354       -0.10      5.37000
 C   153 -- C   353       -0.10      5.37000
 C   152 -- C   352       -0.10      5.37000
 C   151 -- C   351       -0.10      5.37000
 C   140 -- C   335       -0.10      5.37000
 C   139 -- C   334       -0.10      5.37000
 C   138 -- C   333       -0.10      5.37000
 C   137 -- C   332       -0.10      5.37000
 C   136 -- C   331       -0.10      5.37000
 C   115 -- C   325       -0.10      5.37000
 C   114 -- C   324       -0.10      5.37000
 C   113 -- C   323       -0.10      5.37000
 C   112 -- C   322       -0.10      5.37000
 C   111 -- C   321       -0.10      5.37000
 C   219 -- C   569       -0.10      5.37202
 C   218 -- C   568       -0.10      5.37202
 C   217 -- C   567       -0.10      5.37202
 C   216 -- C   566       -0.10      5.37202
 C   250 -- C   540       -0.10      5.37202
 C   249 -- C   539       -0.10      5.37202
 C   248 -- C   538       -0.10      5.37202
 C   247 -- C   537       -0.10      5.37202
 C   246 -- C   536       -0.10      5.37202
 C   220 -- C   570       -0.10      5.37202
 C   285 -- C   580       -0.10      5.37202
 C   284 -- C   579       -0.10      5.37202
 C   283 -- C   578       -0.10      5.37202
 C   282 -- C   577       -0.10      5.37202
 C   281 -- C   576       -0.10      5.37202
 C   260 -- C   605       -0.10      5.37202
 C   259 -- C   604       -0.10      5.37202
 C   258 -- C   603       -0.10      5.37202
 C   257 -- C   602       -0.10      5.37202
 C   256 -- C   601       -0.10      5.37202
 C   220 -- C   515       -0.10      5.37202
 C   219 -- C   514       -0.10      5.37202
 C   218 -- C   513       -0.10      5.37202
 C   217 -- C   512       -0.10      5.37202
 C   216 -- C   511       -0.10      5.37202
 C   195 -- C   540       -0.10      5.37202
 C   195 -- C   500       -0.10      5.37202
 C   194 -- C   539       -0.10      5.37202
 C   194 -- C   499       -0.10      5.37202
 C   193 -- C   538       -0.10      5.37202
 C   193 -- C   498       -0.10      5.37202
 C   192 -- C   537       -0.10      5.37202
 C   192 -- C   497       -0.10      5.37202
 C   191 -- C   536       -0.10      5.37202
 C   191 -- C   496       -0.10      5.37202
 C   180 -- C   515       -0.10      5.37202
 C   179 -- C   514       -0.10      5.37202
 C   178 -- C   513       -0.10      5.37202
 C   177 -- C   512       -0.10      5.37202
 C   176 -- C   511       -0.10      5.37202
 C    11 -- C   331       -0.10      5.37202
 C   205 -- C   550       -0.10      5.37202
 C   204 -- C   549       -0.10      5.37202
 C   203 -- C   548       -0.10      5.37202
 C   202 -- C   547       -0.10      5.37202
 C   201 -- C   546       -0.10      5.37202
 C    95 -- C   425       -0.10      5.37202
 C    95 -- C   365       -0.10      5.37202
 C    94 -- C   424       -0.10      5.37202
 C    94 -- C   364       -0.10      5.37202
 C    93 -- C   423       -0.10      5.37202
 C    93 -- C   363       -0.10      5.37202
 C    92 -- C   422       -0.10      5.37202
 C    92 -- C   362       -0.10      5.37202
 C    91 -- C   421       -0.10      5.37202
 C    91 -- C   361       -0.10      5.37202
 C    40 -- C   365       -0.10      5.37202
 C    39 -- C   364       -0.10      5.37202
 C    38 -- C   363       -0.10      5.37202
 C    37 -- C   362       -0.10      5.37202
 C    36 -- C   361       -0.10      5.37202
 C    15 -- C   335       -0.10      5.37202
 C    65 -- C   395       -0.10      5.37202
 C    65 -- C   345       -0.10      5.37202
 C    64 -- C   394       -0.10      5.37202
 C    64 -- C   344       -0.10      5.37202
 C    63 -- C   393       -0.10      5.37202
 C    30 -- C   355       -0.10      5.37202
 C    63 -- C   343       -0.10      5.37202
 C    62 -- C   392       -0.10      5.37202
 C    30 -- C   325       -0.10      5.37202
 C    14 -- C   334       -0.10      5.37202
 C    62 -- C   342       -0.10      5.37202
 C    61 -- C   391       -0.10      5.37202
 C    29 -- C   354       -0.10      5.37202
 C    61 -- C   341       -0.10      5.37202
 C    29 -- C   324       -0.10      5.37202
 C   260 -- C   550       -0.10      5.37202
 C   259 -- C   549       -0.10      5.37202
 C    28 -- C   353       -0.10      5.37202
 C   258 -- C   548       -0.10      5.37202
 C   257 -- C   547       -0.10      5.37202
 C   256 -- C   546       -0.10      5.37202
 C    28 -- C   323       -0.10      5.37202
 C    27 -- C   352       -0.10      5.37202
 C    13 -- C   333       -0.10      5.37202
 C    27 -- C   322       -0.10      5.37202
 C   120 -- C   395       -0.10      5.37202
 C    26 -- C   351       -0.10      5.37202
 C   119 -- C   394       -0.10      5.37202
 C   118 -- C   393       -0.10      5.37202
 C    55 -- C   335       -0.10      5.37202
 C   117 -- C   392       -0.10      5.37202
 C    26 -- C   321       -0.10      5.37202
 C   116 -- C   391       -0.10      5.37202
 C    54 -- C   334       -0.10      5.37202
 C    12 -- C   332       -0.10      5.37202
 C    53 -- C   333       -0.10      5.37202
 C   230 -- C   580       -0.10      5.37202
 C   230 -- C   525       -0.10      5.37202
 C   229 -- C   579       -0.10      5.37202
 C   229 -- C   524       -0.10      5.37202
 C   228 -- C   578       -0.10      5.37202
 C    52 -- C   332       -0.10      5.37202
 C   228 -- C   523       -0.10      5.37202
 C   227 -- C   577       -0.10      5.37202
 C   227 -- C   522       -0.10      5.37202
 C   226 -- C   576       -0.10      5.37202
 C   226 -- C   521       -0.10      5.37202
 C    51 -- C   331       -0.10      5.37202
 C    23 -- C   478       -0.10      5.37202
 C    49 -- C   469       -0.10      5.37202
 C    48 -- C   468       -0.10      5.37202
 C    47 -- C   467       -0.10      5.37202
 C    22 -- C   477       -0.10      5.37202
 C    46 -- C   466       -0.10      5.37202
 C    21 -- C   476       -0.10      5.37202
 C    85 -- C   355       -0.10      5.37202
 C    84 -- C   354       -0.10      5.37202
 C    83 -- C   353       -0.10      5.37202
 C    82 -- C   352       -0.10      5.37202
 C    81 -- C   351       -0.10      5.37202
 C    55 -- C   385       -0.10      5.37202
 C    54 -- C   384       -0.10      5.37202
 C    25 -- C   480       -0.10      5.37202
 C    53 -- C   383       -0.10      5.37202
 C    52 -- C   382       -0.10      5.37202
 C    51 -- C   381       -0.10      5.37202
 C    24 -- C   479       -0.10      5.37202
 C    50 -- C   470       -0.10      5.37202
 C    24 -- C   449       -0.10      5.37202
 C     6 -- C   416       -0.10      5.37202
 C    23 -- C   448       -0.10      5.37202
 C    22 -- C   447       -0.10      5.37202
 C    10 -- C   470       -0.10      5.37202
 C     5 -- C   450       -0.10      5.37202
 C    21 -- C   446       -0.10      5.37202
 C    10 -- C   420       -0.10      5.37202
 C     9 -- C   469       -0.10      5.37202
 C     9 -- C   419       -0.10      5.37202
 C     8 -- C   468       -0.10      5.37202
 C     4 -- C   449       -0.10      5.37202
 C   150 -- C   440       -0.10      5.37202
 C   149 -- C   439       -0.10      5.37202
 C   148 -- C   438       -0.10      5.37202
 C   147 -- C   437       -0.10      5.37202
 C     8 -- C   418       -0.10      5.37202
 C   146 -- C   436       -0.10      5.37202
 C     2 -- C   447       -0.10      5.37202
 C   135 -- C   460       -0.10      5.37202
 C     7 -- C   467       -0.10      5.37202
 C   134 -- C   459       -0.10      5.37202
 C   133 -- C   458       -0.10      5.37202
 C   132 -- C   457       -0.10      5.37202
 C   131 -- C   456       -0.10      5.37202
 C     7 -- C   417       -0.10      5.37202
 C     1 -- C   446       -0.10      5.37202
 C     6 -- C   466       -0.10      5.37202
 C    25 -- C   450       -0.10      5.37202
 C     3 -- C   448       -0.10      5.37202
 C   106 -- C   436       -0.10      5.37202
 C   106 -- C   376       -0.10      5.37202
 C    80 -- C   410       -0.10      5.37202
 C    79 -- C   409       -0.10      5.37202
 C    78 -- C   408       -0.10      5.37202
 C    77 -- C   407       -0.10      5.37202
 C    76 -- C   406       -0.10      5.37202
 C   135 -- C   410       -0.10      5.37202
 C   134 -- C   409       -0.10      5.37202
 C   133 -- C   408       -0.10      5.37202
 C   132 -- C   407       -0.10      5.37202
 C   131 -- C   406       -0.10      5.37202
 C   110 -- C   440       -0.10      5.37202
 C   110 -- C   380       -0.10      5.37202
 C   109 -- C   439       -0.10      5.37202
 C   109 -- C   379       -0.10      5.37202
 C   108 -- C   438       -0.10      5.37202
 C   108 -- C   378       -0.10      5.37202
 C   107 -- C   437       -0.10      5.37202
 C   107 -- C   377       -0.10      5.37202
 C   215 -- C   635       -0.10      5.38000
 C   214 -- C   634       -0.10      5.38000
 C   213 -- C   633       -0.10      5.38000
 C   212 -- C   632       -0.10      5.38000
 C   211 -- C   631       -0.10      5.38000
 C   190 -- C   620       -0.10      5.38000
 C   189 -- C   619       -0.10      5.38000
 C   188 -- C   618       -0.10      5.38000
 C   187 -- C   617       -0.10      5.38000
 C   186 -- C   616       -0.10      5.38000
 C   175 -- C   595       -0.10      5.38000
 C   174 -- C   594       -0.10      5.38000
 C   173 -- C   593       -0.10      5.38000
 C   172 -- C   592       -0.10      5.38000
 C   171 -- C   591       -0.10      5.38000
 C   245 -- C   640       -0.10      5.38000
 C   244 -- C   639       -0.10      5.38000
 C   243 -- C   638       -0.10      5.38000
 C   242 -- C   637       -0.10      5.38000
 C   241 -- C   636       -0.10      5.38000
==================================================


=================== Orbital energy and occupancy information ===================

      Total number of orbitals:    2560
        Occupancy sum (kernel):    1279.999999999
   Occupancy sum (eigenvalues):    1279.999999999
                 HOMO-LUMO gap:       0.069658941 Eh
                 Mid-gap level:       0.179255688 Eh

                        Orbital | Energy (Eh) | Occupancy
                            1    -0.540969428   1.0000000
                        .......   ...........   .........
                         1271     0.141914282   0.9999895
                         1272     0.141918236   0.9999895
                         1273     0.142384401   0.9999878
                         1274     0.142388362   0.9999878
                         1275     0.143407103   0.9999832
                         1276     0.143413293   0.9999832
                         1277     0.143878609   0.9999805
                         1278     0.143884796   0.9999805
                         1279     0.143954547   0.9999800
                         1280     0.144426218   0.9999768
                        ....... -- gap at 0K -- .........
                         1281     0.214085159   0.0000120
                         1282     0.214090894   0.0000119
                         1283     0.214220957   0.0000115
                         1284     0.214222825   0.0000115
                         1285     0.214304830   0.0000112
                         1286     0.214336373   0.0000110
                         1287     0.214342086   0.0000110
                         1288     0.214476204   0.0000106
                         1289     0.214478097   0.0000106
                         1290     0.214562021   0.0000103
                        .......   ...........   .........
                         2560     1.074264758   0.0000000

================================================================================

===================== Writing canonical molecular orbitals =====================
| Orbital  Energy (eV)  Norm     |
| HOMO      3.93003736  1.000000 | Writing "4.158936_GO_manual_4x64graphite_HOMO.cube" ... done
Writing "4.158936_GO_manual_4x64graphite_HOMO.dx" ... done
| LUMO      5.82555359  1.000000 | Writing "4.158936_GO_manual_4x64graphite_LUMO.cube" ... done
Writing "4.158936_GO_manual_4x64graphite_LUMO.dx" ... done
================================================================================
 
===================== Density of States (DOS) calculation ======================
Writing "4.158936_GO_manual_4x64graphite_DOS.txt" ...  done
================================================================================
 
Writing bands to file "4.158936_GO_manual_4x64graphite.val_bands" ... done
 
================ Projected Density of States (pDOS) calculation ================
 
Constructing AM resolved functions  ...... done
Writing NGWF plot files in formats: CUBE DX ...  done
 
Performing overlap integrals ...  done
 
Computing pDOS weights ...  done
 
All bands spilling parameter =   2.78 %
Occupancy-weighted spilling parameter =   1.00 %
 
 => Outputting data for OptaDOS <=
 
Writing pDOS weights to file "4.158936_GO_manual_4x64graphite.val_pdos_bin" ... done
 
Writing band gradients to file "4.158936_GO_manual_4x64graphite.val_dome_bin" ... done
 
Writing Castep output cell file to "4.158936_GO_manual_4x64graphite-out.cell" ... done
 
 => Computing Gaussian smeared pDOS <= 
Writing "4.158936_GO_manual_4x64graphite_PDOS.txt" ...  done
 
 => Computing Occupancy-weighted Gaussian smeared pDOS <= 
Writing "4.158936_GO_manual_4x64graphite_occ_PDOS.txt" ...  done
  => Band centres: 
 S band centre of group 1:  -13.769562 eV
 P band centre of group 1:   -6.615203 eV
  Band centres done. <=
  => Integrated number of electrons in each AM band: 
 S num electrons of group 1:  577.063390
 P num electrons of group 1: 1957.282832
  Integrated number of electrons done. <=
================================================================================

------------------------------ TIMING INFORMATION ------------------------------
AVERAGE TIME:    2815.093s on     40 node(s)                                    
TOTAL TIME:      2815.095s on     40 node(s)                                    
================= AVERAGE TIMINGS FROM ALL NODES (CUMULATIVE) ==================
|| TAG                                    #calls    cpu time   %total  Gflops ||
|| work_imbalance                       :     1        0.00s   0.000%  ------ ||
|| paw_tcore_density                    :     1        0.01s   0.000%  ------ ||
|| paw_tcore_hartree_on_grid            :     1        0.01s   0.000%  ------ ||
|| paw_sphere_density_on_grid           :     1        0.02s   0.001%  ------ ||
|| sparse_set_to_garbage                :   135        0.02s   0.001%  ------ ||
|| paw_dij_hartree                      :   276        0.04s   0.001%  ------ ||
|| pseudo_make_structure_factor         :     1        0.06s   0.002%  ------ ||
|| basis_extract_function_from_box      :  1536        0.07s   0.002%  ------ ||
|| paw_species_calc_proj_prec_mat       :     1        0.12s   0.004%  ------ ||
|| paw_dataset_init                     :     1        0.15s   0.005%  ------ ||
|| density_init_guess_real              :     1        0.17s   0.006%  ------ ||
|| ngwfs_initialise_from_radial         :     2        0.66s   0.024%  ------ ||
|| restart_kernel_write                 :    13        0.93s   0.033%  ------ ||
|| sparse_init                          :     1        0.97s   0.035%  ------ ||
|| dense_normal_eigensolve              :     1        1.10s   0.039%  ------ ||
|| hartree_on_grid                      :   209        1.53s   0.054%  ------ ||
|| projectors_init_fftbox_recip         :   121        2.39s   0.085%  ------ ||
|| fourier_apply_box_pair               :  2272        3.77s   0.134% 559.722 ||
|| ewald_calculate_energy               :     1        4.10s   0.146%  ------ ||
|| basis_copy_function_to_box           : 19776        4.24s   0.151%  ------ ||
|| augmentation_screen_dij              :   214        4.75s   0.169%  ------ ||
|| sparse_embed_hotelling_invert_embed  :    23        6.63s   0.235%  ------ ||
|| sw_init                              :     1        6.73s   0.239%  ------ ||
|| ngwf_gradient_coeffs                 :    12        8.32s   0.296%  ------ ||
|| sparse_trace                         :  2500       10.87s   0.386%  ------ ||
|| cell_grid_extract_box_real           :  8300       16.19s   0.575%  ------ ||
|| fourier_apply_cell_backward          :  6450       16.82s   0.597%  56.657 ||
|| fourier_apply_cell_forward           :  6033       17.42s   0.619%  51.174 ||
|| cell_grid_deposit_box_real           : 26928       17.96s   0.638%  ------ ||
|| paw_dij_xc                           :   276       18.25s   0.648%  ------ ||
|| aug_nonlocal_mat                     :   264       25.93s   0.921%  ------ ||
|| density_fftbox_deposit_to_cell       : 13376       36.39s   1.293%  ------ ||
|| augmentation_density_on_grid         :   209       38.63s   1.372%  ------ ||
|| function_ops_brappd_ketppd           :    48       41.69s   1.481%  ------ ||
|| hamiltonian_energy_components        :     3       43.04s   1.529%  ------ ||
|| projectors_func_ovlp_box             :    24       43.07s   1.530%  ------ ||
|| eigenstates_pdos                     :     1       53.48s   1.900%  ------ ||
|| eigenstates_calculate                :     1       58.02s   2.061%  ------ ||
|| integrals_kinetic                    :    23       66.10s   2.348%  ------ ||
|| nlxc_vdw_energy                      :   416       69.78s   2.479%  ------ ||
|| xc_energy_potential                  :   208       72.05s   2.559%  ------ ||
|| dense_eigensolve                     :   182       94.62s   3.361%  ------ ||
|| potential_apply_to_ngwf_batch        :   256      100.52s   3.571%  ------ ||
|| sparse_product                       :  2538      104.96s   3.728%  ------ ||
|| properties_calculate                 :     1      107.24s   3.809%  ------ ||
|| restart_ngwfs_tightbox_output        :    11      132.45s   4.705%  ------ ||
|| basis_dot_function_with_box          : 5.164M     140.92s   5.006%  ------ ||
|| projectors_gradient_batch            :    48      165.38s   5.875%  ------ ||
|| integrals_locpot_mat_els_batch       :   256      186.99s   6.642%  ------ ||
|| fourier_apply_box                    : 62480      193.64s   6.878% 977.908 ||
|| edft_diag_ngwf_ham                   :   181      206.65s   7.341%  ------ ||
|| projectors_grad_precond_batch        :    48      241.43s   8.576%  ------ ||
|| density_fftbox_interpolate_multiply  : 13376      258.87s   9.196%  ------ ||
|| integrals_locpot_dbl_grid            :    64      288.52s  10.249%  ------ ||
|| density_batch_interp_deposit         :   836      327.85s  11.646%  ------ ||
|| basis_add_function_to_box            : 15.07M     395.08s  14.034%  ------ ||
|| edft_apply_smearing_operator         :   181      397.77s  14.130%  ------ ||
|| ngwf_gradient_build_batch            :    48      443.35s  15.749%  ------ ||
|| density_batch_row_sums               :   836      548.99s  19.502%  ------ ||
|| ngwf_gradient_batch                  :    48      598.52s  21.261%  ------ ||
|| ngwf_gradient_lnv                    :    12      621.66s  22.083%  ------ ||
|| density_on_dbl_grid                  :   209      889.22s  31.588%  ------ ||
|| hamiltonian_lhxc_calculate           :   204      979.35s  34.789%  ------ ||
|| edft_calculate                       :    12     1653.97s  58.754%  ------ ||
|| ngwf_cg_optimise                     :     1     2682.27s  95.282%  ------ ||
|| total_time                           :     1     2815.09s 100.000%  ------ ||
================================================================================
Overhead of generating timer report: 
- 0 ms averaging over threads,
- 5 ms ensuring consistency across MPI ranks,
- 0 ms printing in order.

Job completed: 05-03-2020 22:07 (-0000)

