 +---------------------------------------------------------------+
 |                                                               |
 |        ####### #     # ####### ####### ####### ######         |
 |        #     # ##    # #          #    #       #     #        |
 |        #     # # #   # #          #    #       #     #        |
 |        #     # #  #  # #####      #    #####   ######         |
 |        #     # #   # # #          #    #       #              |
 |        #     # #    ## #          #    #       #              |
 |        ####### #     # #######    #    ####### #              |
 |                                                               |
 |        Linear-Scaling Ab Initio Total Energy Program          |
 |                                                               |
 |          Release for academic collaborators of ODG            |
 |                                             Version 6.1.3.6   |
 |                                                               |
 +---------------------------------------------------------------+
 |                                                               |
 |  Authors:                                                     |
 |  Jacek Dziedzic, Peter D. Haynes, Nicholas D. M. Hine,        |
 |  Arash A. Mostofi, Mike C. Payne and Chris-Kriton Skylaris    |
 |                                                               |
 |  Contributors:                                                |
 |  J. Aarons, L. Andrinopoulos, P. W. Avraam, R. A. Bell,       |
 |  A. Bhandari, G. A. Bramley, R. J. Charlton, S. J. Clark,     |
 |  R. J. Clements, G. C. Constantinescu, F. Corsetti,           |
 |  N. Corsini, O. Dieguez, S. M. M. Dubois, K. K. B. Duff,      |
 |  J. M. Escartin, A. Greco, H. Helal, Q. O. Hill, L. P. Lee,   |
 |  J.-H. Li, E. B. Linscott, G. Moynihan, D. D. O`Regan,        |
 |  O. K. Okan, M. J. S. Phipps, C. J. Pickard,                  |
 |  J. C. A. Prentice, M. I. J. Probert, L. E. Ratcliff,         |
 |  M. Robinson, A. Ruiz Serrano, J. S. Spencer, E. W. Tait,     |
 |  G. Teobaldi, D. Turban, V. Vitale, K. A. Wilkinson,          |
 |  C. Weber, J. C. Womack, N. Yeung and T. J. Zuehlsdorff       |
 |                                                               |
 |                                   Copyright (c) 2004-2021     |
 |                                                               |
 |  Please cite:                                                 |
 |  "The ONETEP linear-scaling density functional theory program"|
 |   J. Chem. Phys. 152(17) 174111 (2020)                        |
 |                                                               |
 |          in all publications arising from your use of ONETEP. |
 |                                                               |
 +---------------------------------------------------------------+
 |                                                               |
 |   ONETEP is based on developments described in the following  |
 |   publications:                                               |
 |                                                               |
 |  "Nonorthogonal generalized Wannier function pseudopotential  |
 |   plane-wave method".                                         |
 |   C.-K. Skylaris, A. A. Mostofi, P. D. Haynes, O. Dieguez,    |
 |   M. C. Payne.                                                |
 |   Phys. Rev. B 66 035119 (2002).                              |
 |                                                               |
 |  "Preconditioned iterative minimization for linear-scaling    |
 |   electronic structure calculations".                         |
 |   A. A. Mostofi, P. D. Haynes, C.-K. Skylaris, M. C. Payne.   |
 |   J. Chem. Phys. 119(17), pp.8842-8848 (2003).                |
 |                                                               |
 |  "Total-energy calculations on a real space grid with         |
 |   localized functions and a plane-wave basis".                |
 |   A. A. Mostofi, C.-K. Skylaris, P. D. Haynes, M. C. Payne.   |
 |   Comput. Phys. Commun. 147, pp.788-802 (2002).               |
 |                                                               |
 |  "Accurate kinetic energy evaluation in electronic structure  |
 |   calculations with localized functions on real space grids"  |
 |   C.-K. Skylaris, A. A. Mostofi, P. D. Haynes, C. J. Pickard, |
 |   M. C. Payne.                                                |
 |   Comput. Phys. Commun. 140, pp.315-322 (2001).               |
 |                                                               |
 |  "Accurate ionic forces and geometry optimization in linear-  |
 |   scaling density-functional theory with local orbitals"      |
 |   N. D. M. Hine, M. Robinson, P. D. Haynes, C.-K. Skylaris,   |
 |   M. C. Payne, and A. A. Mostofi.                             |
 |   Phys. Rev. B 83 195102 (2011).                              |
 |                                                               |
 +---------------------------------------------------------------+

Job started: 08-12-2021 04:30 (-0000)
 
Reading parameters from file "36/592nano.dat" ...... done

If your calculation crashes here, before "Checking processes and threads..."
is displayed, then your stack size is insufficient.
If so, use "ulimit -s unlimited" at runtime.
You can disable this check with "check_stack_size F".

Checking processes and threads...
   Determining the default number of threads...
      No default threads set at compilation time: defaulting to 1.
      OpenMP library call suggests 4 threads.
      Hybrid MPI-OpenMP compilation detected.
      Number of MPI processes > 1.
      OMP_NUM_THREADS environment variable present and
      its value matches the one obtained from the OpenMP library call.
      Using this value as default.
      Default threads: 4
      Default applies to threads_max and threads_num_fftboxes.
      Settings in the input file override this default.
   ... done

   Running with 160 MPI processes.
   There are 10 MPI processes running on the same node as the root process.
   Each MPI process is using: 
               1 threads for simulation cell FFTs.
               1 threads for parallel FFT box operations.
               4 threads for loops over batched FFT box operations.
               4 threads in other parallel regions.
... done

Basic input checks...
Resetting ngwf_cg_rotate to TRUE for EDFT calculations
... done

Reading geometry and species blocks from file "36/592nano.dat" ...    
  Number of PPD points along a3 set to 1.  This is 
  the default value, it may have been provided also in the input file.
... done
 Writing xyz coordinates to file "36/592nano.xyz" ... done


--------------------------------------------------------------------------------
---------------------------------- INPUT FILE ----------------------------------
--------------------------------------------------------------------------------

task : singlepoint                                                              
do_properties : true                                                            
dx_format T                                                                     
edft T                                                                          
edft_spin_fix 3                                                                 
output_detail VERBOSE                                                           
timings_level 3                                                                 
write_xyz T                                                                     
edft_update_scheme: pulay_mix                                                   
edft_ham_diis_size: 10                                                          
edft_trial_step: 0.1                                                            
xc_functional OPTPBE                                                            
cutoff_energy 830 eV                                                            
paw T                                                                           
geom_disp_tol 0.06 bohr                                                         
geom_energy_tol 6E-6 hartree                                                    
geom_force_tol 0.012 "ha/bohr"                                                  
geom_max_iter 25                                                                
EDFT_MAXIT 30                                                                   
pdos_max_l = 2                                                                  
dos_smear  0.1 eV                                                               
popn_calculate T                                                                
PDOS_PSEUDOATOMIC T                                                             
PDOS_REDUCE_SWS F                                                               
PDOS_CONSTRUCT_BASIS F                                                          
PDOS_LOWDIN T                                                                   
PDOS_ORTH_ATOM_BLOCKS F                                                         
PDOS_LCAO_OPTIMIZE F                                                            
pdos_optados_output T                                                           
homo_plot 0                                                                     
lumo_plot 0                                                                     
homo_dens_plot -1                                                               
lumo_dens_plot -1                                                               
%BLOCK SPECIES                                                                  
C C 6 4 9.0                                                                     
H H 1 1 9.0                                                                     
Li Li 3 5 9.0                                                                   
%ENDBLOCK SPECIES                                                               
%BLOCK SPECIES_POT                                                              
C "~/pp/paw/c_pbe_abinit.paw"                                                   
H "~/pp/paw/h_pbe_abinit.paw"                                                   
Li "~/pp/paw/li_pbe_abinit.paw"                                                 
%ENDBLOCK SPECIES_POT                                                           
%BLOCK SPECIES_ATOMIC_SET                                                       
C "SOLVE conf=2s2 2p2"                                                          
H "SOLVE conf=1s1"                                                              
Li "SOLVE conf=1s2 2s1 2p0"                                                     
%ENDBLOCK SPECIES_ATOMIC_SET                                                    
%BLOCK SPECIES_LDOS_GROUPS                                                      
C                                                                               
H                                                                               
Li                                                                              
%ENDBLOCK SPECIES_LDOS_GROUPS                                                   
%BLOCK LATTICE_CART                                                             
94.486315650000      0.000000000000       0.000000000000                        
0.000000000000       94.486315650000      0.000000000000                        
0.000000000000       0.000000000000       94.486315650000                       
%ENDBLOCK LATTICE_CART                                                          
%BLOCK POSITIONS_ABS                                                            
C 42.847174 41.463330 31.594121                                                 
C 38.784063 43.753996 31.730520                                                 
C 41.515129 39.136341 31.219546                                                 
C 45.548072 41.502171 31.594471                                                 
C 37.452982 41.412716 31.420732                                                 
C 37.414856 46.082586 31.864017                                                 
C 54.916699 48.614683 31.368130                                                 
C 54.886424 53.282525 31.340076                                                 
C 53.589349 46.271886 31.483374                                                 
C 38.642560 57.784984 31.952846                                                 
C 42.658471 60.162667 31.796686                                                 
C 37.327203 55.433865 32.035033                                                 
C 53.522839 55.603858 31.432638                                                 
C 45.356700 60.197088 31.745790                                                 
C 46.905261 39.194088 31.295074                                                 
C 41.479158 43.779802 31.799894                                                 
C 34.718902 46.056130 31.690469                                                 
C 50.930777 41.578593 31.361230                                                 
C 53.556957 50.938060 31.528072                                                 
C 34.676734 50.729305 31.885027                                                 
C 41.338697 57.814228 31.988102                                                 
C 38.818577 39.112158 31.090091                                                 
C 54.958015 43.947277 31.298516                                                 
C 49.567425 43.884031 31.650802                                                 
C 37.370882 50.757098 32.056355                                                 
C 49.452323 57.916845 31.720167                                                 
C 34.622005 55.404483 31.915250                                                 
C 57.611839 48.627636 31.044593                                                 
C 50.764978 60.265272 31.397143                                                 
C 57.570691 53.278522 30.957439                                                 
C 37.256458 60.107084 31.748304                                                 
C 54.836985 57.942817 31.098384                                                 
C 50.826169 55.590877 31.722983                                                 
C 46.754499 57.882781 31.884647                                                 
C 41.261636 62.475262 31.541267                                                 
C 46.663905 62.546954 31.408983                                                 
C 46.875350 43.844897 31.770201                                                 
C 50.899386 46.234387 31.699964                                                 
C 38.736013 48.432715 32.034992                                                 
C 38.698426 53.113374 32.117424                                                 
C 49.591475 39.247214 31.188609                                                 
C 33.369942 48.377742 31.676359                                                 
C 42.889014 36.810175 30.958630                                                 
C 53.634445 41.613889 31.251573                                                 
C 34.755284 41.387218 31.329606                                                 
C 33.307978 53.063043 31.839917                                                 
C 45.568611 36.838008 31.082809                                                 
C 33.398469 43.693655 31.460110                                                 
C 58.930412 50.958537 30.823397                                                 
C 53.454214 60.257263 31.059316                                                 
C 49.354824 62.569556 31.220115                                                 
C 38.566115 62.444777 31.529014                                                 
C 50.865096 50.912139 31.782756                                                 
C 42.722892 55.496543 32.094183                                                 
C 42.805174 46.139805 31.972960                                                 
C 57.648237 43.972884 31.053819                                                 
C 58.969379 46.300166 30.901799                                                 
C 33.251440 57.726883 31.755338                                                 
C 34.559288 60.066478 31.668105                                                 
C 58.882460 55.605949 30.577940                                                 
C 49.497407 53.243111 31.885499                                                 
C 45.428585 55.531730 32.045094                                                 
C 57.523037 57.928997 30.644903                                                 
C 49.538686 48.557445 31.851851                                                 
C 41.397675 53.146565 32.150524                                                 
C 42.558005 64.817867 31.143728                                                 
C 41.439762 48.464892 32.082933                                                 
C 45.505536 46.173788 31.942261                                                 
C 45.252657 64.856078 31.077257                                                 
C 37.469107 36.760955 30.594051                                                 
C 46.799108 53.211866 32.036552                                                 
C 42.769025 50.819662 32.133436                                                 
C 46.834009 48.527731 31.981803                                                 
C 41.559985 34.475992 30.445313                                                 
C 33.438958 39.021604 31.054346                                                 
C 50.978350 36.908611 30.829982                                                 
C 55.013828 39.284241 31.021107                                                 
C 30.661943 48.360305 31.297311                                                 
C 46.941914 34.518674 30.863774                                                 
C 30.596759 53.042691 31.603050                                                 
C 30.702494 43.669437 31.255679                                                 
C 45.466778 50.855384 32.078809                                                 
C 61.638396 50.962251 30.457805                                                 
C 38.889790 34.506571 30.155339                                                 
C 34.805851 36.770850 30.740097                                                 
C 37.158989 64.773443 31.258647                                                 
C 59.012509 41.633356 30.912731                                                 
C 54.757773 62.589024 30.510154                                                 
C 50.648113 64.912486 30.673557                                                 
C 61.676826 46.323695 30.599443                                                 
C 30.542441 57.679918 31.602656                                                 
C 61.575699 55.576297 30.051826                                                 
C 33.178675 62.395538 31.433390                                                 
C 41.120297 67.129229 30.745708                                                 
C 58.821047 60.266063 30.133344                                                 
C 46.560834 67.196287 30.568163                                                 
C 49.604714 34.594609 30.769822                                                 
C 29.399894 45.989639 31.138345                                                 
C 62.945230 48.632128 30.402536                                                 
C 53.656049 36.981422 30.828162                                                 
C 62.900737 53.282493 30.132577                                                 
C 57.674696 39.354654 30.967746                                                 
C 29.341943 50.688838 31.321646                                                 
C 42.976740 32.174436 30.447181                                                 
C 34.490591 64.682457 31.274253                                                 
C 38.476875 67.068765 30.934623                                                 
C 29.281089 55.356261 31.572697                                                 
C 30.739877 39.052118 31.051462                                                 
C 45.567434 32.202630 30.696752                                                 
C 29.427292 41.293473 31.127589                                                 
C 57.399025 62.551563 30.146369                                                 
C 53.379235 64.943795 30.614532                                                 
C 49.248462 67.163649 30.442891                                                 
H 37.869890 32.715775 29.823416                                                 
H 33.778722 34.966413 30.541538                                                 
C 62.996397 43.947902 30.506079                                                 
C 61.716352 41.701777 30.669962                                                 
C 62.798531 57.934505 29.488949                                                 
C 29.206387 60.035090 31.423212                                                 
C 30.467633 62.294235 31.335544                                                 
C 61.450978 60.202229 29.530510                                                 
C 42.488302 69.424189 30.219794                                                 
C 45.125646 69.442185 30.129683                                                 
H 64.963093 53.278524 29.838774                                                 
H 65.016943 48.634855 30.149740                                                 
H 50.624429 32.771239 30.485841                                                 
H 41.958808 30.372841 30.211927                                                 
H 29.727874 37.234832 30.929363                                                 
H 27.347746 45.944766 30.692745                                                 
H 37.396010 68.839835 30.732225                                                 
H 33.420808 66.461416 31.070436                                                 
H 58.729873 37.559049 30.879283                                                 
H 27.196669 55.336878 31.461581                                                 
H 46.638032 30.416393 30.675120                                                 
H 54.782839 35.226410 30.521938                                                 
H 27.344414 41.290161 31.068960                                                 
H 27.294301 50.724366 30.853677                                                 
H 58.374271 64.318903 29.585221                                                 
H 50.240856 68.925500 29.893364                                                 
H 65.073601 43.982647 30.299147                                                 
H 62.744594 39.889878 30.593086                                                 
H 54.269771 66.575628 29.644590                                                 
H 64.837605 57.932698 29.075026                                                 
H 29.418830 64.086895 31.158969                                                 
H 27.124174 59.980244 31.335239                                                 
H 41.409829 71.183299 29.932834                                                 
H 62.425154 61.994390 29.111699                                                 
H 46.148108 71.223734 29.774945                                                 
C 44.221153 39.062879 37.407316                                                 
C 36.077595 43.734893 37.491310                                                 
C 40.145499 41.408488 37.526824                                                 
C 41.521877 39.086459 37.412387                                                 
C 49.622891 39.086772 37.265067                                                 
C 37.452313 41.419004 37.350559                                                 
C 48.263510 41.415742 37.429904                                                 
C 53.682934 41.453022 37.186478                                                 
C 45.563386 41.400912 37.526914                                                 
C 52.314838 43.770822 37.354627                                                 
C 36.052529 48.400740 37.806174                                                 
C 37.416967 46.069345 37.738591                                                 
C 45.557739 36.721030 37.203869                                                 
C 36.022793 53.077780 37.935268                                                 
C 33.350470 48.386857 37.674375                                                 
C 53.646874 46.119370 37.338034                                                 
C 52.349016 39.110070 37.209042                                                 
C 33.320263 53.068931 37.813321                                                 
C 56.338694 46.139014 37.047631                                                 
C 33.376539 43.708334 37.336624                                                 
C 49.607659 43.760728 37.498733                                                 
C 37.367094 55.419968 37.935756                                                 
C 48.263300 36.725028 37.219959                                                 
C 41.490489 43.745612 37.707932                                                 
C 37.394833 50.743312 37.934999                                                 
C 36.010040 57.747372 37.782038                                                 
C 56.382955 41.459116 36.967970                                                 
C 56.319422 50.825808 37.095332                                                 
C 53.628796 50.807050 37.431976                                                 
C 53.614960 55.496945 37.448162                                                 
C 31.975729 50.729271 37.733290                                                 
C 45.477839 60.139673 37.739783                                                 
C 41.422813 57.765571 37.863828                                                 
C 57.705896 43.805743 36.846202                                                 
C 32.003124 46.022253 37.504100                                                 
C 52.253321 57.825318 37.503982                                                 
C 44.198018 43.740819 37.694126                                                 
C 48.177775 60.169777 37.670513                                                 
C 40.122404 46.077584 37.805553                                                 
C 40.049260 60.091929 37.661151                                                 
C 49.547548 57.821334 37.675727                                                 
C 52.294141 48.460236 37.513237                                                 
C 57.658965 48.492805 36.852164                                                 
C 40.080728 55.429955 37.960698                                                 
C 56.321021 55.498321 37.192729                                                 
C 52.273543 53.148138 37.565434                                                 
C 44.133746 57.786537 37.853821                                                 
C 40.176091 36.745853 37.283160                                                 
C 31.952829 55.409426 37.677419                                                 
C 44.101634 62.467094 37.600397                                                 
C 36.093128 39.090786 36.971704                                                 
C 33.299654 57.739743 37.638319                                                 
C 37.359958 60.072270 37.610580                                                 
C 57.649002 53.158842 36.944196                                                 
C 41.388055 62.426542 37.455339                                                 
C 48.249897 46.091047 37.666870                                                 
C 40.099741 50.753091 37.961578                                                 
C 48.213074 55.478672 37.789438                                                 
C 44.208262 34.356069 37.020384                                                 
C 53.745018 36.748496 37.110152                                                 
C 53.600952 60.181357 37.337999                                                 
C 49.588273 48.447799 37.681456                                                 
C 49.513538 62.517551 37.561304                                                 
C 41.449156 53.096128 37.978777                                                 
C 45.498662 55.457685 37.887501                                                 
C 49.574286 53.137855 37.735822                                                 
C 45.540113 46.084948 37.757110                                                 
C 41.467271 48.421164 37.895337                                                 
C 32.032284 41.362050 36.958805                                                 
C 37.463514 36.761004 37.211378                                                 
C 49.628893 34.334852 37.193110                                                 
C 41.515264 34.411962 37.207600                                                 
C 57.666688 57.830740 37.137885                                                 
C 57.767281 39.119746 36.771703                                                 
C 33.442722 39.084043 36.822920                                                 
C 45.439784 64.812134 37.550891                                                 
C 44.155788 53.109714 37.931877                                                 
C 48.229974 50.784414 37.784052                                                 
C 29.219528 50.724180 37.699877                                                 
C 44.175376 48.426975 37.858205                                                 
C 60.363907 48.498490 36.428750                                                 
C 52.222171 62.532495 37.424990                                                 
C 45.521423 50.772517 37.875366                                                 
C 60.430022 43.832990 36.529896                                                 
C 29.257403 45.981562 37.565197                                                 
C 56.313037 60.182707 37.261019                                                 
C 56.404519 36.793187 36.915064                                                 
C 29.233835 55.401635 37.441351                                                 
C 48.151297 64.845123 37.594080                                                 
C 60.334226 53.160344 36.467203                                                 
C 52.367808 34.407465 37.530106                                                 
C 35.995903 62.405156 37.265215                                                 
C 31.930494 60.073077 37.356819                                                 
C 40.026772 64.761383 37.130954                                                 
C 45.580741 32.085495 36.725666                                                 
C 27.913865 53.040917 37.549213                                                 
C 61.696616 46.186399 36.362900                                                 
C 27.929378 48.342783 37.904493                                                 
C 61.645313 50.848183 36.299390                                                 
C 48.247166 32.070018 36.852627                                                 
C 29.347825 41.380165 36.916601                                                 
C 33.305854 62.407844 37.373258                                                 
C 60.439379 39.188327 36.535960                                                 
C 37.356171 64.697706 37.072081                                                 
C 60.405272 57.842917 36.941450                                                 
H 36.437161 34.967204 36.817021                                                 
H 40.437359 32.614390 37.128536                                                 
C 61.751423 41.479014 36.408730                                                 
C 44.038072 67.187255 37.527028                                                 
H 32.442864 37.292648 36.439283                                                 
C 61.665969 55.508468 36.494349                                                 
C 27.999187 43.625583 37.345202                                                 
C 41.358910 67.091464 37.243081                                                 
H 57.440492 35.015538 36.527155                                                 
C 27.933546 57.739969 37.349005                                                 
C 29.252855 60.018612 37.303664                                                 
H 53.421798 32.586007 37.378262                                                 
C 53.574260 64.926931 37.592775                                                 
H 44.540410 30.306316 36.484452                                                 
H 25.839370 53.041939 37.314981                                                 
C 57.705893 62.582794 37.320191                                                 
C 49.499937 67.257794 37.688536                                                 
H 63.763371 46.207442 36.078973                                                 
H 28.337428 39.579479 36.671195                                                 
H 25.855858 48.323733 38.167552                                                 
H 63.673081 50.800788 35.781219                                                 
H 49.272683 30.266899 36.641098                                                 
H 61.485265 37.389762 36.434871                                                 
H 32.294425 64.121158 36.719140                                                 
H 36.338756 66.451939 36.551191                                                 
H 63.824147 41.513196 36.204772                                                 
H 63.700310 55.508936 35.981636                                                 
H 25.916029 43.591800 37.400732                                                 
H 25.854678 57.733828 37.198044                                                 
C 61.716340 60.208519 36.887078                                                 
H 40.280317 68.877268 37.164412                                                 
C 45.415359 69.520690 37.501781                                                 
H 28.225011 61.820625 37.106301                                                 
C 52.209264 67.214537 37.797898                                                 
C 56.275482 64.886199 37.674074                                                 
C 60.362356 62.549067 37.109771                                                 
C 48.108832 69.536849 37.628264                                                 
H 63.804611 60.195141 36.933737                                                 
H 44.365556 71.317053 37.611738                                                 
H 53.247676 68.992321 38.144295                                                 
H 57.304499 66.663195 38.041498                                                 
H 61.418539 64.341088 37.163954                                                 
H 49.133698 71.348659 37.718118                                                 
H 28.599580 37.965815 44.388742                                                 
H 40.390738 30.129183 44.655287                                                 
H 32.519221 35.265620 43.946675                                                 
H 36.476406 32.689327 44.477854                                                 
H 45.115580 29.846244 44.530434                                                 
H 26.459655 42.255556 44.214492                                                 
C 41.545412 31.857583 44.493143                                                 
C 29.756939 39.681946 44.154153                                                 
H 61.888019 37.976506 43.431069                                                 
C 33.662062 37.012844 44.030520                                                 
C 37.606123 34.439905 44.357378                                                 
C 44.162123 31.695582 44.407648                                                 
H 49.294468 31.923667 44.476669                                                 
H 64.551340 41.962531 43.237139                                                 
C 28.544404 42.105025 44.121911                                                 
H 65.519078 56.125553 43.732277                                                 
H 26.839072 47.009679 44.164011                                                 
H 27.811392 60.906504 45.282804                                                 
H 53.439765 34.000052 44.513212                                                 
H 57.622529 36.046137 44.538165                                                 
H 30.370842 64.869567 44.801684                                                 
H 27.217181 51.621802 44.832540                                                 
H 65.248207 51.377417 43.400294                                                 
H 43.126432 71.174699 44.328924                                                 
H 63.411965 60.358849 44.169600                                                 
H 27.566085 56.218119 45.436457                                                 
H 64.886901 46.700740 43.205655                                                 
C 32.411426 39.439410 44.033584                                                 
C 40.303983 34.237375 44.458238                                                 
H 47.917022 70.844075 44.391251                                                 
C 36.377985 36.803479 44.165063                                                 
H 38.850557 69.105904 44.103398                                                 
C 60.977585 39.847538 43.489401                                                 
C 62.479171 42.105170 43.371006                                                 
H 34.608655 67.064515 44.382168                                                 
C 48.360768 33.769807 44.220901                                                 
C 63.437719 56.240116 43.783474                                                 
C 28.918877 46.817872 44.328685                                                 
H 59.467892 62.982492 44.446489                                                 
C 29.866109 60.792458 44.978362                                                 
C 45.681912 33.909794 44.286408                                                 
H 51.802070 68.153444 44.299154                                                 
H 55.595775 65.530832 44.612500                                                 
C 30.023048 44.356366 44.090205                                                 
C 31.319505 63.013549 44.730127                                                 
C 52.538013 35.843597 44.116215                                                 
C 62.255278 58.627466 44.027623                                                 
C 56.728032 37.850770 43.964104                                                 
C 44.036377 69.302714 44.360220                                                 
C 29.307217 51.474154 44.682967                                                 
C 63.162010 51.528420 43.420922                                                 
C 29.596846 56.108422 44.951755                                                 
C 62.811173 46.838123 43.310157                                                 
C 46.744289 69.126037 44.455679                                                 
C 49.848367 35.971944 44.138018                                                 
C 58.280255 40.010412 43.639505                                                 
C 39.768207 67.238308 44.141046                                                 
C 54.053965 38.041318 43.986152                                                 
C 30.439717 49.055190 44.463735                                                 
C 61.362569 44.529549 43.392246                                                 
C 35.523354 65.189536 44.216830                                                 
C 41.796695 36.512806 44.146270                                                 
C 61.996127 54.005389 43.630977                                                 
C 33.957726 41.720533 43.932679                                                 
C 31.023512 58.376910 44.832811                                                 
C 45.406511 50.388669 43.591441                                                 
C 30.777352 53.723219 44.805767                                                 
C 37.877403 39.102545 43.960069                                                 
C 61.678125 49.268702 43.382749                                                 
C 46.916019 52.637857 43.617976                                                 
C 58.331093 61.230788 44.310460                                                 
C 42.702906 50.569578 43.655601                                                 
C 46.599064 47.954290 43.538656                                                 
C 44.483021 36.348913 44.064844                                                 
C 33.975666 62.917797 44.366231                                                 
C 50.612288 66.438330 44.307819                                                 
C 42.497951 67.134239 44.250163                                                 
C 32.773826 44.166997 43.988498                                                 
C 54.435676 63.801069 44.463950                                                 
C 59.581645 58.825150 44.097762                                                 
C 45.720957 55.071351 43.693494                                                 
C 49.620181 52.453712 43.594412                                                 
C 41.192696 48.312672 43.661585                                                 
C 45.089782 45.704607 43.540286                                                 
C 38.229338 65.038670 44.141336                                                 
C 41.515719 53.002915 43.747841                                                 
C 49.301862 47.772544 43.514290                                                 
C 47.949204 66.698439 44.381605                                                 
C 40.585154 38.936337 43.909312                                                 
C 36.659195 41.534040 43.859796                                                 
C 42.381577 45.875003 43.593511                                                 
C 43.016980 55.262364 43.760451                                                 
C 50.819046 50.019619 43.537580                                                 
C 48.656875 38.425446 43.850690                                                 
C 55.647436 61.412388 44.394906                                                 
C 33.144786 48.860936 44.264531                                                 
C 52.856516 40.484119 43.687458                                                 
C 57.068827 42.482536 43.555442                                                 
C 51.777077 64.034729 44.138148                                                 
C 58.590966 44.746511 43.486383                                                 
C 45.962833 38.597225 43.808139                                                 
C 46.283078 43.273407 43.540713                                                 
C 38.497343 48.486394 43.798771                                                 
C 34.295346 46.411182 44.023372                                                 
C 33.464608 53.532698 44.412428                                                 
C 50.488953 45.338952 43.501692                                                 
C 38.817535 53.181711 43.878918                                                 
C 51.129078 54.695854 43.670974                                                 
C 40.874386 43.624159 43.639215                                                 
C 50.166741 40.660645 43.656848                                                 
C 47.230287 57.314652 43.757005                                                 
C 33.736097 58.208167 44.467756                                                 
C 59.243345 54.155458 43.682390                                                 
C 42.079590 41.187200 43.684038                                                 
C 38.170291 43.789312 43.749293                                                 
C 48.972729 43.097568 43.527251                                                 
C 44.772003 41.018160 43.643829                                                 
C 58.930925 49.472650 43.466984                                                 
C 37.323199 50.931244 43.926994                                                 
C 35.220084 60.463473 44.298927                                                 
C 36.991247 46.226727 43.850089                                                 
C 34.634291 51.113812 44.189326                                                 
C 54.378215 42.702585 43.569004                                                 
C 53.514783 49.828977 43.524266                                                 
C 49.931769 57.115387 43.766247                                                 
C 43.684972 64.618650 44.214957                                                 
C 41.830102 57.690095 43.875446                                                 
C 58.042329 56.564417 43.886153                                                 
C 34.939116 55.789152 44.283052                                                 
C 53.192962 45.149898 43.514710                                                 
C 57.408184 47.189981 43.494782                                                 
C 39.421802 62.556930 44.106121                                                 
C 37.626089 55.622319 44.020215                                                 
C 57.736952 51.914095 43.559549                                                 
C 54.691376 47.392631 43.509894                                                 
C 46.405772 64.424756 44.211194                                                 
C 53.841672 54.506981 43.682836                                                 
C 55.035808 52.089606 43.575356                                                 
C 39.112058 57.875019 43.988948                                                 
C 46.031357 59.743397 43.881544                                                 
C 37.915501 60.293773 44.100692                                                 
C 54.135267 59.167869 44.066403                                                 
C 43.341204 59.926645 43.941121                                                 
C 50.249414 61.775416 44.011489                                                 
C 42.160533 62.379896 44.092833                                                 
C 51.442172 59.358558 43.940768                                                 
C 55.348447 56.747730 43.872936                                                 
C 47.556344 61.991521 44.008834                                                 
H 43.861488 29.882075 50.306007                                                 
H 27.963679 39.525002 51.449839                                                 
H 48.573571 29.735440 50.254164                                                 
H 60.823533 36.407445 51.014843                                                 
H 63.243284 40.446995 51.505203                                                 
H 25.678636 43.680166 51.640787                                                 
H 28.451234 61.753237 51.385118                                                 
H 25.980586 57.725241 51.227396                                                 
H 36.050004 34.755650 51.056173                                                 
H 39.918303 32.327409 50.369827                                                 
H 32.031736 37.104422 51.303284                                                 
H 63.549344 49.776702 51.121925                                                 
H 36.672718 66.110425 52.049444                                                 
H 63.779066 59.024640 51.972667                                                 
H 44.836233 70.568684 52.614860                                                 
H 63.429470 45.138359 51.091424                                                 
H 32.573866 63.880817 51.907196                                                 
H 52.664085 31.956047 50.178252                                                 
H 56.757849 34.163805 50.360160                                                 
H 63.650398 54.387586 51.536455                                                 
H 61.518686 63.175218 52.302401                                                 
H 40.725857 68.376905 52.081519                                                 
H 49.570765 70.508806 52.466649                                                 
H 25.912902 53.089216 51.465262                                                 
H 25.855546 48.436360 52.082356                                                 
C 44.982429 31.634665 50.172861                                                 
C 47.570471 31.557647 50.134495                                                 
C 29.032111 41.318349 51.342469                                                 
C 59.861186 38.240034 50.781193                                                 
C 27.756525 43.637310 51.453055                                                 
C 61.202740 40.487935 51.081212                                                 
C 28.060549 57.695570 51.067445                                                 
C 29.419778 59.917498 51.147897                                                 
H 57.561002 65.640951 52.165066                                                 
H 53.603278 68.113057 52.084635                                                 
C 41.006843 34.102440 50.211594                                                 
C 37.044552 36.527624 50.537448                                                 
C 33.031471 38.882986 50.813178                                                 
C 61.724260 59.132274 51.648683                                                 
C 45.845080 68.810577 52.143268                                                 
C 60.468021 61.443262 51.825285                                                 
C 51.680164 33.788419 50.012904                                                 
C 48.489343 68.782943 52.038706                                                 
C 55.783983 35.997090 50.152094                                                 
C 61.366164 45.192602 50.777716                                                 
C 61.537418 49.852400 50.543885                                                 
C 33.551429 62.123327 51.314706                                                 
C 37.629054 64.391407 51.336295                                                 
C 27.879465 48.357386 51.595499                                                 
C 27.973443 53.018613 51.160860                                                 
C 61.641942 54.486628 50.957239                                                 
C 41.722302 66.602546 51.631716                                                 
C 43.646401 33.992055 50.072631                                                 
C 49.039771 33.834669 49.977086                                                 
C 31.695035 41.204625 50.923584                                                 
C 57.191475 38.238074 50.294485                                                 
C 29.096916 45.984219 51.312382                                                 
C 59.997905 42.885043 50.724620                                                 
C 29.307972 55.306045 50.909385                                                 
C 39.699829 36.414002 50.198568                                                 
C 32.107735 59.895422 51.002045                                                 
C 35.700222 38.825796 50.557989                                                 
C 53.124310 36.033688 49.948387                                                 
C 56.492507 63.918836 51.683944                                                 
C 52.528542 66.386221 51.646069                                                 
C 29.219945 50.671200 51.223678                                                 
C 45.379346 50.324056 49.367681                                                 
C 60.397226 56.865221 51.065385                                                 
C 60.145982 47.542041 50.596120                                                 
C 44.406816 66.596181 51.611056                                                 
C 36.211721 62.104297 51.173859                                                 
C 60.273671 52.225670 50.642401                                                 
C 40.316667 64.368840 51.346819                                                 
C 57.792273 61.612624 51.455001                                                 
C 49.850770 66.498714 51.572184                                                 
C 44.087805 52.697581 49.463934                                                 
C 48.090865 50.257014 49.360732                                                 
C 43.961761 48.015054 49.377389                                                 
C 53.853749 64.056229 51.436071                                                 
C 45.504827 55.007777 49.556019                                                 
C 49.504102 52.563763 49.449873                                                 
C 45.061613 36.295624 49.850478                                                 
C 41.379616 52.747245 49.567563                                                 
C 49.382239 47.881104 49.360295                                                 
C 47.739990 36.217731 49.805387                                                 
C 33.073432 43.543710 50.571539                                                 
C 41.257778 48.069979 49.482073                                                 
C 45.266098 45.641363 49.355010                                                 
C 31.780315 45.901568 50.724397                                                 
C 55.920788 40.649583 50.024063                                                 
C 57.313757 42.944569 50.198028                                                 
C 32.002000 55.255990 50.593189                                                 
C 33.395646 57.549517 50.598734                                                 
C 48.212549 54.942233 49.558533                                                 
C 39.964800 50.437270 49.587347                                                 
C 47.970424 45.572918 49.345925                                                 
C 51.833679 38.433484 49.734442                                                 
C 41.084310 38.727983 49.883958                                                 
C 37.072323 41.148925 50.073683                                                 
C 57.706157 56.976582 50.635013                                                 
C 31.902145 50.587591 50.624987                                                 
C 45.728652 64.277180 51.005947                                                 
C 57.441732 47.634235 50.121887                                                 
C 56.413001 59.331518 50.823482                                                 
C 37.508447 59.776975 50.573321                                                 
C 48.422809 64.217888 51.018355                                                 
C 57.574460 52.324898 50.170672                                                 
C 41.624278 62.028684 50.716391                                                 
C 40.087628 55.115635 49.779608                                                 
C 44.211377 57.372542 49.792044                                                 
C 52.211071 52.489293 49.570660                                                 
C 52.078911 47.803204 49.481092                                                 
C 39.841378 45.756313 49.580375                                                 
C 49.148849 38.511862 49.645159                                                 
C 43.857299 43.336180 49.452692                                                 
C 43.761979 38.663429 49.724354                                                 
C 35.759189 43.493350 50.074793                                                 
C 53.237831 40.729575 49.701384                                                 
C 33.173967 48.220954 50.382774                                                 
C 33.286260 52.888747 50.366935                                                 
C 39.754619 41.088042 49.811776                                                 
C 41.500842 57.420522 49.914106                                                 
C 56.048957 45.334352 49.917953                                                 
C 53.492798 50.106965 49.598539                                                 
C 41.148439 43.396256 49.576543                                                 
C 36.100701 57.505264 50.351604                                                 
C 52.434922 61.766465 50.826477                                                 
C 37.258870 50.481209 49.818204                                                 
C 56.186301 50.022078 49.898995                                                 
C 49.260176 43.195357 49.412515                                                 
C 40.206226 59.754073 50.351255                                                 
C 49.625176 57.239894 49.817157                                                 
C 56.309489 54.689743 50.144039                                                 
C 44.317795 62.000627 50.535207                                                 
C 45.163468 40.970692 49.519793                                                 
C 37.143154 45.800888 49.805637                                                 
C 37.388164 55.153536 49.993521                                                 
C 53.362733 45.414183 49.586504                                                 
C 47.856758 40.893697 49.494802                                                 
C 35.845525 48.172080 49.953203                                                 
C 51.959557 43.112178 49.524917                                                 
C 35.976895 52.842525 50.016408                                                 
C 45.620726 59.665963 50.066062                                                 
C 53.723609 59.430362 50.479397                                                 
C 49.733716 61.864575 50.595657                                                 
C 53.619136 54.789887 49.834889                                                 
C 48.327624 59.598214 50.090919                                                 
C 52.329792 57.158337 49.980981                                                 
Li 59.714888 41.408579 40.012004                                                
Li 31.771002 60.554305 41.260866                                                
Li 30.589810 42.019050 40.651165                                                
Li 46.520388 67.522489 40.815613                                                
Li 59.738725 60.188414 40.413415                                                
Li 54.606593 62.386573 40.681697                                                
Li 41.129302 64.902436 40.882683                                                
Li 39.498258 35.328127 40.790212                                                
Li 28.898101 54.222326 41.309208                                                
Li 30.726948 48.094210 40.821695                                                
Li 50.920951 37.126922 40.540355                                                
Li 62.684708 53.108638 39.711855                                                
Li 62.629694 52.526523 47.405511                                                
Li 59.939749 47.001661 40.108576                                                
Li 35.023487 38.121883 40.538034                                                
Li 46.647225 33.675819 40.375877                                                
Li 55.499195 35.625879 40.795789                                                
Li 34.917852 64.855842 40.311390                                                
Li 56.360500 64.451136 33.660803                                                
Li 60.250499 47.046034 46.760635                                                
Li 51.531114 67.113170 33.854793                                                
Li 51.736679 64.756831 47.972439                                                
Li 34.874390 64.352604 48.145470                                                
Li 40.860727 64.935982 47.533203                                                
Li 59.752047 59.814068 48.006811                                                
Li 46.574441 67.878129 48.257914                                                
Li 28.307894 48.977859 47.761499                                                
Li 59.982212 40.720542 47.256725                                                
Li 34.194819 36.404492 47.810496                                                
Li 27.742485 48.184817 34.035155                                                
Li 43.827838 68.229520 33.805385                                                
Li 39.511409 35.270465 33.838964                                                
Li 61.543293 58.388214 33.230851                                                
Li 29.839551 43.165184 47.840489                                                
Li 52.373553 34.350966 33.648539                                                
Li 28.995360 53.741400 34.494480                                                
%ENDBLOCK POSITIONS_ABS                                                         

--------------------------------------------------------------------------------
-------------------------------- END INPUT FILE --------------------------------
--------------------------------------------------------------------------------


 
<<<<<<<<<<<<<<<<<<<<<<<<<<<<<<<<< Full system >>>>>>>>>>>>>>>>>>>>>>>>>>>>>>>>>>
<<<<<<<<<<<<<<<<<<<<<<<<<<< PAW Dataset information >>>>>>>>>>>>>>>>>>>>>>>>>>>
File: ~/pp/paw/c_pbe_abinit.paw; rc = 1.25 bohr; shape type =  3; rshape = 1.25 bohr;
  Atomic number:  6;  ionic charge:  4.000000
    Partial Wave 1: l = 0
    Partial Wave 2: l = 0
    Partial Wave 3: l = 1
    Partial Wave 4: l = 1
  Core charge supplied for Nonlinear Core Corrections
File: ~/pp/paw/h_pbe_abinit.paw; rc = 0.90 bohr; shape type =  3; rshape = 0.90 bohr;
  Atomic number:  1;  ionic charge:  1.000000
    Partial Wave 1: l = 0
    Partial Wave 2: l = 0
File: ~/pp/paw/li_pbe_abinit.paw; rc = 1.42 bohr; shape type =  3; rshape = 1.42 bohr;
  Atomic number:  3;  ionic charge:  3.000000
    Partial Wave 1: l = 0
    Partial Wave 2: l = 0
    Partial Wave 3: l = 0
    Partial Wave 4: l = 1
    Partial Wave 5: l = 1
<<<<<<<<<<<<<<<<<<<<<<<<<<<<<<<<<<<<<<< >>>>>>>>>>>>>>>>>>>>>>>>>>>>>>>>>>>>>>>

-------------------------- Atom counting information ---------------------------
Symbol    Natoms    Nngwfs    Nprojs
  C        484      1936      3872
  H        108       108       216
  Li        36       180       324
.......   ......    ......    ......
Totals:    628      2224      4412
--------------------------------------------------------------------------------

=============================== PSINC grid sizes ===============================
                      Simulation cell:  189 x 189 x 189
                              FFT-box:  117 x 117 x 117
                                  PPD:    7 x   7 x   1
Grid space d1=  0.499927596032a0 (KE cutoff=  30.39413Eh = 827.06648eV)
Grid space d2=  0.499927596032a0 (KE cutoff=  30.39413Eh = 827.06648eV)
Grid space d3=  0.499927596032a0 (KE cutoff=  30.39413Eh = 827.06648eV)
================================================================================
  
WARNING in cell_grid_distribute:
Average of less than one 23-slab per proc, so workload cannot be
equally balanced between procs.

********************* Fourier parallelisation information **********************
       Coarse grid (whole simulation cell) dimensions:    189   189   189
          Real-space ('12') slabs/proc (min max mean):      1     2     1
         Recip-space ('23') slabs/proc (min max mean):      0     1     0
********************************************************************************

********************* Fourier parallelisation information **********************
       Double grid (whole simulation cell) dimensions:    378   378   378
          Real-space ('12') slabs/proc (min max mean):      2     3     2
         Recip-space ('23') slabs/proc (min max mean):      1     2     1
********************************************************************************

Atom SCF Calculation for C  : Z (AE atom) =   6 : Z (PS atom) =   4
Config String: 2s2 2p2
Orbitals (num,occ):  2     2.00 2.00
Orbitals   (num,l):  2        0    1
Real-space Grid (nr,dr,rmax): 1377    0.0065406977    9.0000000000
Spherical Bessel Basis (nsws,lmax,cutoff):   37    2  183.0099912382
Confining potential (l,width,scale):  0    3.0000000000  100.0000000000
Confining potential (l,width,scale):  1    3.0000000000  100.0000000000
  1         -5.4795186097   -1.3252230651    4.5135247139   -1.6370402178
  2         -5.4480873667   -1.4027986130    4.4305957006   -1.6109824140
  3         -5.4553175168   -1.4212842775    4.4102621601   -1.6059044058
  4         -5.4627851864   -1.4247099971    4.4065125496   -1.6052912254
  5         -5.4662317525   -1.4266823431    4.4043718731   -1.6049357348
  6         -5.4679531179   -1.4277361345    4.4032352159   -1.6047498153
  7         -5.4688370531   -1.4282876632    4.4026436340   -1.6046546171
  8         -5.4692962224   -1.4285743132    4.4023378281   -1.6046060967
  9         -5.4695360875   -1.4287229388    4.4021801230   -1.6045813828
 10         -5.4696617783   -1.4287999625    4.4020988354   -1.6045687883
 11         -5.4697277645   -1.4288398966    4.4020569195   -1.6045623641
 12         -5.4697624500   -1.4288606199    4.4020352864   -1.6045590836
 13         -5.4697806994   -1.4288713865    4.4020241086   -1.6045574064
 14         -5.4697903086   -1.4288769875    4.4020183254   -1.6045565478
 15         -5.4697953717   -1.4288799052    4.4020153292   -1.6045561077
 16         -5.4697980412   -1.4288814272    4.4020137746   -1.6045558818
 17         -5.4697994496   -1.4288822223    4.4020129668   -1.6045557657
 18         -5.4698001930   -1.4288826382    4.4020125465   -1.6045557059
 19         -5.4698005858   -1.4288828561    4.4020123274   -1.6045556751
 20         -5.4698007933   -1.4288829704    4.4020122131   -1.6045556592
 21         -5.4698009031   -1.4288830304    4.4020121533   -1.6045556509
 22         -5.4698009612   -1.4288830620    4.4020121220   -1.6045556467
Atom SCF converged after  22 iterations to a total energy of     -5.46980096

Atom SCF Calculation for H  : Z (AE atom) =   1 : Z (PS atom) =   1
Config String: 1s1
Orbitals (num,occ):  1     1.00
Orbitals   (num,l):  1        0
Real-space Grid (nr,dr,rmax): 1377    0.0065406977    9.0000000000
Spherical Bessel Basis (nsws,lmax,cutoff):   37    1  183.0099912382
Confining potential (l,width,scale):  0    3.0000000000  100.0000000000
  1         -0.3687944832   -0.2607687933    0.2820952946   -0.2613406499
  2         -0.4328656062   -0.2590521405    0.2895573663   -0.2701762133
  3         -0.4633856573   -0.2560091938    0.2934204754   -0.2757429988
  4         -0.4750266404   -0.2549676794    0.2946557510   -0.2779015032
  5         -0.4793045155   -0.2546870695    0.2949704774   -0.2786577123
  6         -0.4808919118   -0.2546234645    0.2950332622   -0.2789201171
  7         -0.4814942533   -0.2546130669    0.2950388368   -0.2790132353
  8         -0.4817280090   -0.2546133926    0.2950352123   -0.2790473458
  9         -0.4818204053   -0.2546148712    0.2950319888   -0.2790602287
 10         -0.4818574273   -0.2546158825    0.2950301416   -0.2790652181
 11         -0.4818724050   -0.2546164247    0.2950292178   -0.2790671871
 12         -0.4818785049   -0.2546166894    0.2950287833   -0.2790679748
 13         -0.4818810009   -0.2546168128    0.2950285855   -0.2790682928
 14         -0.4818820255   -0.2546168689    0.2950284970   -0.2790684221
 15         -0.4818824471   -0.2546168940    0.2950284580   -0.2790684748
 16         -0.4818826210   -0.2546169051    0.2950284408   -0.2790684964
 17         -0.4818826928   -0.2546169100    0.2950284333   -0.2790685053
Atom SCF converged after  17 iterations to a total energy of     -0.48188269

Atom SCF Calculation for Li : Z (AE atom) =   3 : Z (PS atom) =   3
Config String: 1s2 2s1 2p0
Orbitals (num,occ):  3     2.00 1.00 0.00
Orbitals   (num,l):  3        0    0    1
Real-space Grid (nr,dr,rmax): 1377    0.0065406977    9.0000000000
Spherical Bessel Basis (nsws,lmax,cutoff):   37    2  183.0099912382
Confining potential (l,width,scale):  0    3.0000000000  100.0000000000
Confining potential (l,width,scale):  1    3.0000000000  100.0000000000
  1         -6.1314629607   -4.7499359229    2.5388576516   -1.0480231927
  2         -7.0450508208   -4.1702030791    2.9795337774   -1.2623862962
  3         -7.3518474013   -3.9564527259    3.2037296734   -1.3880788964
  4         -7.4613386962   -3.8947565558    3.2914990517   -1.4402825036
  5         -7.5001516047   -3.8789668192    3.3221434609   -1.4602864917
  6         -7.5136113510   -3.8755528126    3.3322769691   -1.4678164580
  7         -7.5181182589   -3.8751724459    3.3354399675   -1.4706394447
  8         -7.5195538340   -3.8753832694    3.3363346353   -1.4716958846
  9         -7.5199777516   -3.8756112412    3.3365363545   -1.4720903919
 10         -7.5200869011   -3.8757624244    3.3365501247   -1.4722372325
 11         -7.5201065703   -3.8758489541    3.3365264569   -1.4722916218
 12         -7.5201049812   -3.8758952022    3.3365040630   -1.4723116262
 13         -7.5201006323   -3.8759190019    3.3364892955   -1.4723189110
 14         -7.5200980758   -3.8759285770    3.3364824548   -1.4723210036
 15         -7.5200963811   -3.8759342877    3.3364781194   -1.4723220111
 16         -7.5200953120   -3.8759376792    3.3364754203   -1.4723224913
 17         -7.5200946593   -3.8759396866    3.3364737619   -1.4723227171
 18         -7.5200942701   -3.8759408718    3.3364727530   -1.4723228213
 19         -7.5200940419   -3.8759415700    3.3364721439   -1.4723228682
 20         -7.5200939099   -3.8759419808    3.3364717784   -1.4723228886
 21         -7.5200938343   -3.8759422222    3.3364715600   -1.4723228969
Atom SCF converged after  21 iterations to a total energy of     -7.52009383

Determining parallel strategy ...
... using space-filling curve
... NGWF load balancing: max     16;  min     12;  average     14
... Projector load balancing: max     32;  min     24;  average     28
... done
Calculating Ewald energy ...
              Ewald: real-space energy =   37338.349616
        Ewald: reciprocal-space energy =   36536.591928
         Ewald: (sum_charge)**2 Energy =    2861.754728
         Ewald: (sum_charge**2) Energy =     253.220333
                          Ewald Energy =   70759.966483
Basis initialisation ...... NGWF spheres initialised
... Projector spheres initialised
... NGWF tight boxes initialised
... Projector tight boxes initialised
... Tight-boxes gathered
... NGWF basis size (local,global):     282070  44888808
... PAW projector initialisation
... done

============================= Charge Augmentation ==============================
                           Aug box size:   13 x  13 x  13
================================================================================

========================== Sparse matrix information ===========================
                        Overlap matrix filling:  37.68%
                        Density kernel filling: 100.00%
              NGWF-Proj overlap matrix filling:  10.55%
                    Aug Overlap matrix filling:  42.08%
                    Hamiltonian matrix filling:  42.08%
                  NGWF diagonal matrix filling:   0.18%
                             KS matrix filling: 100.00% 
                           KSKS matrix filling: 100.00% 
================================================================================

Sparse matrix initialisation ... done
NGWF initialisation ...... done
============ Calculation of NGWF S^-1 using Hotelling algorithm ================ 
         Iteration  |  Frobenius norm and Maximum abs value    (of I-S*S_n^-1)   
               1       0.46895391E+02     0.99712560E+00
               2       0.46643732E+02     0.99426583E+00
               3       0.46173772E+02     0.98858898E+00
               4       0.45347158E+02     0.97739863E+00
               5       0.44027979E+02     0.95562006E+00
               6       0.42174406E+02     0.91416362E+00
               7       0.39841913E+02     0.83822687E+00
               8       0.37063736E+02     0.79809831E+00
               9       0.33964438E+02     0.78193008E+00
              10       0.30870501E+02     0.75974608E+00
              11       0.27781007E+02     0.73932249E+00
              12       0.24098675E+02     0.71724289E+00
              13       0.19274649E+02     0.68736731E+00
              14       0.13339142E+02     0.64664718E+00
              15       0.75010088E+01     0.58016553E+00
              16       0.36511773E+01     0.47495235E+00
              17       0.19380302E+01     0.38129391E+00
              18       0.10250474E+01     0.30253480E+00
              19       0.51536950E+00     0.20029848E+00
              20       0.22637692E+00     0.93425872E-01
              21       0.50839573E-01     0.21019664E-01
              22       0.25845584E-02     0.10685819E-02
              23       0.66799420E-05     0.27618123E-05
              24       0.44614396E-10     0.18448354E-10
              25       0.57670350E-13     0.82989171E-14
================================================================================
Calculating core density ...
================================= Core Density =================================
               Core den box size:   21 x  21 x  21
================================================================================
 ... done
Up spin density kernel initialisation ...... done
Down spin density kernel initialisation ...... done

Writing density kernel to file "36/592nano.dkn" ... done

>>> Optimising kernel for current NGWFs:

--------------------------- Ensemble-DFT optimisation --------------------------
Running ScaLAPACK on  160 processor(s).

--------------------------------------------------------------------------------
  Iter                              Commutator    Free_energy(A=E-TS)     DeltaA
#    0                          0.001277789004   -3095.60045189229595  -3.10E+03

Step                       =       0.381966011250
Energy (E)                 =   -3095.575207164498
Entropy (-TS)              =      -0.025244727798
Free energy (A=E-TS)       =   -3095.600451892296
Est. 0K Energy 0.5*(E+A)   =   -3095.587829528397
Residual Non-orthogonality =       0.000000000000
Residual N_electrons       =       0.000000000000

Spin          Integrated_Ne            Fermi_level     Delta_Fermi_level
   1      1076.000000000000        -0.231382978144             -2.31E-01
   2      1076.000000000000        -0.231382978144             -2.31E-01

                           Spin 1           |                 Spin 2           |
     Orb |    H-eigenvalues     Occupancies |    H-eigenvalues     Occupancies |
       1 |    -1.9232637541    1.0000000000 |    -1.9232637541    1.0000000000 | 
                          ------                             ------
    1072 |    -0.2414893790    0.9605074282 |    -0.2414893790    0.9605074282 | 
    1073 |    -0.2404709423    0.9463307654 |    -0.2404709423    0.9463307654 | 
    1074 |    -0.2368049972    0.8471134246 |    -0.2368049972    0.8471134246 | 
    1075 |    -0.2362339960    0.8222739584 |    -0.2362339960    0.8222739584 | 
    1076 |    -0.2332949648    0.6465155261 |    -0.2332949648    0.6465155261 | 
                 - Gap at zero temperature - |     - Gap at zero temperature -
                  Finite temp. Fermi level   |      Finite temp. Fermi level  
    1077 |    -0.2303266827    0.4173766801 |    -0.2303266827    0.4173766801 | 
    1078 |    -0.2278613100    0.2474879938 |    -0.2278613100    0.2474879938 | 
    1079 |    -0.2222999455    0.0537483811 |    -0.2222999455    0.0537483811 | 
    1080 |    -0.2202922473    0.0292503816 |    -0.2202922473    0.0292503816 | 
    1081 |    -0.2194500196    0.0225738530 |    -0.2194500196    0.0225738530 | 
                          ------                             ------
    2224 |     0.5587422203    0.0000000000 |     0.5587422203    0.0000000000 | 

                            |  Abs_value |  Threshold | Converged
     Delta_Free_energy/atom |   4.93E+00 |   1.00E-06 |        No
     Delta_Energy/atom      |   4.93E+00 |   1.00E-04 |        No
     Delta_Entropy/atom     |   4.02E-05 |   1.00E-04 |       Yes
     Commutator             |   1.28E-03 |   1.00E-05 |        No
     Delta_Fermi_level      |   2.31E-01 |   1.00E-03 |        No

  Line search of the free energy minimum:
  Step_type        Step             Free_energy   Predicted_free_energy
.   Initial    0.000000    -3095.60045189229595

Performing  Pulay mixing of Hamiltonian with coefficients:
                        Spin 1               Spin 2
                1.000000000000       1.000000000000
Lambda-->      35.023345304829      35.023345301508     ... done

.    Trial1    0.381966    -3094.22685790134710

Performing  Pulay mixing of Hamiltonian with coefficients:
                        Spin 1               Spin 2
                1.000000000000       1.000000000000
Lambda-->      35.023345304829      35.023345301508     ... done

.    Trial2    0.145898    -3096.47959844010620

Performing  Pulay mixing of Hamiltonian with coefficients:
                        Spin 1               Spin 2
                1.000000000000       1.000000000000
Lambda-->      35.023345304829      35.023345301508     ... done

. Quadratic    0.146869    -3096.48046238454071    -3096.47963683041462

--------------------------------------------------------------------------------
  Iter                              Commutator    Free_energy(A=E-TS)     DeltaA
#    1                          0.000895773878   -3096.48046238454071  -8.80E-01

Step                       =       0.146868542524
Energy (E)                 =   -3096.451003916779
Entropy (-TS)              =      -0.029458467673
Free energy (A=E-TS)       =   -3096.480462384541
Est. 0K Energy 0.5*(E+A)   =   -3096.465733150660
Residual Non-orthogonality =       0.000000000000
Residual N_electrons       =      -0.000000000088

[...]
 C   289 -- Li  611       -0.05     -0.00      5.61499
 H   479 -- Li  614       -0.02      0.00      5.62660
 C    93 -- H   277       -0.02      0.00      5.63017
 H   317 -- Li  615       -0.02      0.00      5.63295
 C   260 -- Li  622       -0.06     -0.00      5.63994
 C   290 -- Li  613       -0.05     -0.00      5.64139
 H   315 -- Li  603        0.01      0.00      5.64848
 C   514 -- Li  616       -0.04      0.00      5.65331
 H   314 -- Li  594       -0.01     -0.00      5.65496
 H   450 -- Li  626       -0.01      0.00      5.65868
 H   276 -- Li  593       -0.01      0.00      5.66401
=============================================================


============== Orbital energy and occupancy information for spin 1 =============

      Total number of orbitals:    2224
        Occupancy sum (kernel):    1075.999999987
   Occupancy sum (eigenvalues):    1075.999999987
                 HOMO-LUMO gap:       0.002929080 Eh
                 Mid-gap level:      -0.084676516 Eh

                        Orbital | Energy (Eh) | Occupancy
                            1    -1.862821513   1.0000000
                        .......   ...........   .........
                         1067    -0.105048813   0.9984333
                         1068    -0.102539477   0.9966040
                         1069    -0.099879552   0.9920438
                         1070    -0.096799415   0.9794147
                         1071    -0.094419175   0.9577197
                         1072    -0.092580122   0.9255222
                         1073    -0.091082775   0.8870562
                         1074    -0.090350115   0.8612911
                         1075    -0.086697686   0.6640816
                         1076    -0.086141056   0.6214884
                        ....... -- gap at 0K -- .........
                         1077    -0.083211976   0.3932307
                         1078    -0.080123033   0.1968524
                         1079    -0.079408785   0.1633156
                         1080    -0.078648972   0.1332740
                         1081    -0.076842304   0.0795102
                         1082    -0.074278331   0.0373535
                         1083    -0.073462583   0.0289396
                         1084    -0.072838544   0.0238187
                         1085    -0.070422756   0.0112379
                         1086    -0.069861694   0.0094135
                        .......   ...........   .........
                         2224     0.768259096   0.0000000

================================================================================

============== Orbital energy and occupancy information for spin 2 =============

      Total number of orbitals:    2224
        Occupancy sum (kernel):    1076.000000014
   Occupancy sum (eigenvalues):    1076.000000014
                 HOMO-LUMO gap:       0.003088943 Eh
                 Mid-gap level:      -0.081667505 Eh

                        Orbital | Energy (Eh) | Occupancy
                            1    -1.862821513   1.0000000
                        .......   ...........   .........
                         1068    -0.102539477   0.9966040
                         1069    -0.099879552   0.9920438
                         1070    -0.096799415   0.9794147
                         1071    -0.094419175   0.9577197
                         1072    -0.092580122   0.9255222
                         1073    -0.091082776   0.8870562
                         1074    -0.090350115   0.8612911
                         1075    -0.086697686   0.6640816
                         1076    -0.086141056   0.6214885
                         1077    -0.083211976   0.3932307
                        ....... -- gap at 0K -- .........
                         1078    -0.080123033   0.1968524
                         1079    -0.079408785   0.1633156
                         1080    -0.078648971   0.1332741
                         1081    -0.076842304   0.0795102
                         1082    -0.074278331   0.0373535
                         1083    -0.073462583   0.0289396
                         1084    -0.072838543   0.0238187
                         1085    -0.070422756   0.0112379
                         1086    -0.069861695   0.0094135
                         1087    -0.069354858   0.0080210
                        .......   ...........   .........
                         2224     0.768259096   0.0000000

================================================================================

===================== Writing canonical molecular orbitals =====================
    Spin 1
| Orbital  Energy (eV)  Norm     |
| HOMO     -2.34401740  1.000000 | Writing "36/592nano_HOMO_UP.cube" ... done
Writing "36/592nano_HOMO_UP.dx" ... done
| LUMO     -2.26431309  1.000000 | Writing "36/592nano_LUMO_UP.cube" ... done
Writing "36/592nano_LUMO_UP.dx" ... done
================================================================================

===================== Writing canonical molecular orbitals =====================
    Spin 2
| Orbital  Energy (eV)  Norm     |
| HOMO     -2.26431309  1.000000 | Writing "36/592nano_HOMO_DN.cube" ... done
Writing "36/592nano_HOMO_DN.dx" ... done
| LUMO     -2.18025867  1.000000 | Writing "36/592nano_LUMO_DN.cube" ... done
Writing "36/592nano_LUMO_DN.dx" ... done
================================================================================

================== Local Density of States (LDOS) calculation ==================
Writing "36/592nano_UP_LDOS.txt" ...  done
================================================================================

================== Local Density of States (LDOS) calculation ==================
Writing "36/592nano_DN_LDOS.txt" ...  done
================================================================================
 
=============== Density of States (DOS) calculation for UP spin ================
Writing "36/592nano_UP_DOS.txt" ...  done
================================================================================
 
============== Density of States (DOS) calculation for DOWN spin ===============
Writing "36/592nano_DN_DOS.txt" ...  done
================================================================================
 
Writing bands to file "36/592nano.val_bands" ... done
 
================ Projected Density of States (pDOS) calculation ================
 
Constructing AM resolved functions  ...... done
Writing NGWF plot files in formats: CUBE DX ...  done
 
Performing overlap integrals ...  done
 
Computing pDOS weights ...  done
 
All bands spilling parameter =   6.16 %
Occupancy-weighted spilling parameter =   0.83 %
 
 => Outputting data for OptaDOS <=
 
Writing pDOS weights to file "36/592nano.val_pdos_bin" ... done
 
Writing band gradients to file "36/592nano.val_dome_bin" ... done
 
Writing Castep output cell file to "36/592nano-out.cell" ... done
 
 => Computing Gaussian smeared pDOS for UP spin<= 
Writing "36/592nano_UP_PDOS.txt" ...  done
 
 => Computing Gaussian smeared pDOS for DOWN spin<= 
Writing "36/592nano_DN_PDOS.txt" ...  done
 
 => Computing Occupancy-weighted Gaussian smeared pDOS for UP spin<= 
Writing "36/592nano_occ_UP_PDOS.txt" ...  done
  => Band centres for UP spin channel: 
 S band centre of group 1:  -18.086445 eV
 P band centre of group 1:   -8.099614 eV
  Band centres for UP spin channel done. <= 
  => Integrated number of electrons in each AM band for UP spin channel: 
 S num electrons of group 1:  302.576980
 P num electrons of group 1:  764.451708
  Integrated number of electrons for UP spin channel done. <= 
 
 => Computing Occupancy-weighted Gaussian smeared pDOS for DOWN spin<= 
Writing "36/592nano_occ_DN_PDOS.txt" ...  done
  => Band centres for DOWN spin channel: 
 S band centre of group 1:  -18.086445 eV
 P band centre of group 1:   -8.099614 eV
  Band centres for DOWN spin channel done. <=
  => Integrated number of electrons in each AM band for DOWN spin channel: 
 S num electrons of group 1:  302.576980
 P num electrons of group 1:  764.451708
  Integrated number of electrons for DOWN spin channel done. <=
================================================================================

------------------------------ TIMING INFORMATION ------------------------------
AVERAGE TIME:    7536.941s on    160 proc(s)                                    
TOTAL TIME:      7537.001s on    160 proc(s)                                    
================= AVERAGE TIMINGS FROM ALL PROCS (CUMULATIVE) ==================
|| TAG                                    #calls    cpu time   %total  Gflops ||
|| work_imbalance                       :     1        0.00s   0.000%  ------ ||
|| paw_dij_hartree                      :   267        0.01s   0.000%  ------ ||
|| sparse_set_to_garbage                :   291        0.01s   0.000%  ------ ||
|| paw_tcore_density                    :     1        0.02s   0.000%  ------ ||
|| paw_sphere_density_on_grid           :     1        0.02s   0.000%  ------ ||
|| basis_extract_function_from_box      :   444        0.03s   0.000%  ------ ||
|| ngwfs_initialise_from_radial         :     2        0.03s   0.000%  ------ ||
|| ewald_calculate_energy               :     1        0.10s   0.001%  ------ ||
|| paw_dataset_init                     :     3        0.28s   0.004%  ------ ||
|| paw_tcore_hartree_on_grid            :     1        0.35s   0.005%  ------ ||
|| density_init_guess_real              :     1        0.83s   0.011%  ------ ||
|| pseudo_make_structure_factor         :     1        0.96s   0.013%  ------ ||
|| sparse_init                          :     1        1.08s   0.014%  ------ ||
|| dense_normal_eigensolve              :     1        1.43s   0.019%  ------ ||
|| paw_species_calc_proj_prec_mat       :     1        1.50s   0.020%  ------ ||
|| restart_kernel_write                 :    17        1.96s   0.026%  ------ ||
|| sw_init                              :     1        4.98s   0.066%  ------ ||
|| basis_copy_function_to_box           :  7950        5.31s   0.070%  ------ ||
|| augmentation_screen_dij              :   187        5.81s   0.077%  ------ ||
|| sparse_embed_hotelling_invert_embed  :    33        9.04s   0.120%  ------ ||
|| paw_dij_xc                           :   267        9.38s   0.124%  ------ ||
|| ngwf_gradient_coeffs                 :    16       11.38s   0.151%  ------ ||
|| fourier_apply_box_pair               :  1128       12.24s   0.162%  2.435k ||
|| projectors_init_fftbox_recip         :    67       16.58s   0.220%  ------ ||
|| aug_nonlocal_mat                     :   251       28.91s   0.384%  ------ ||
|| hartree_on_grid                      :   180       35.52s   0.471%  ------ ||
|| basis_dot_function_with_box          : 2.276M      39.71s   0.527%  ------ ||
|| augmentation_density_on_grid         :   180       41.31s   0.548%  ------ ||
|| sparse_trace                         :  6466       44.58s   0.591%  ------ ||
|| projectors_func_ovlp_box             :    34       48.63s   0.645%  ------ ||
|| integrals_kinetic                    :    33       57.07s   0.757%  ------ ||
|| eigenstates_pdos                     :     1       67.12s   0.891%  ------ ||
|| function_ops_brappd_ketppd           :    68       93.15s   1.236%  ------ ||
|| hamiltonian_energy_components        :     4      106.96s   1.419%  ------ ||
|| basis_add_function_to_box            : 5.685M     119.67s   1.588%  ------ ||
|| eigenstates_calculate                :     1      134.81s   1.789%  ------ ||
|| dense_eigensolve                     :   282      194.90s   2.586%  ------ ||
|| cell_grid_deposit_box_real           : 13049      201.52s   2.674%  ------ ||
|| sparse_product                       :  8451      228.30s   3.029%  ------ ||
|| restart_ngwfs_tightbox_output        :    15      238.75s   3.168%  ------ ||
|| integrals_locpot_mat_els_batch       :   160      261.45s   3.469%  ------ ||
|| fourier_apply_cell_forward           :  6624      278.85s   3.700%  82.682 ||
|| density_batch_row_sums               :   180      297.78s   3.951%  ------ ||
|| fourier_apply_cell_backward          :  7341      313.01s   4.153%  81.629 ||
|| cell_grid_extract_box_real           :  4962      349.62s   4.639%  ------ ||
|| density_fftbox_deposit_to_cell       :  5760      366.26s   4.860%  ------ ||
|| density_fftbox_interpolate_multiply  :  5760      376.02s   4.989%  ------ ||
|| fourier_apply_box                    : 26956      458.83s   6.088%  4.999k ||
|| edft_diag_ngwf_ham                   :   280      464.90s   6.168%  ------ ||
|| projectors_gradient_batch            :    16      475.54s   6.309%  ------ ||
|| potential_apply_to_ngwf_batch        :   160      520.44s   6.905%  ------ ||
|| xc_energy_potential                  :   179      621.43s   8.245%  ------ ||
|| edft_apply_smearing_operator         :   140      746.50s   9.905%  ------ ||
|| integrals_locpot_dbl_grid            :   160      786.65s  10.437%  ------ ||
|| projectors_grad_precond_batch        :    16      865.12s  11.478%  ------ ||
|| nlxc_vdw_energy                      :   358      879.68s  11.672%  ------ ||
|| properties_calculate                 :     1      917.53s  12.174%  ------ ||
|| density_batch_interp_deposit         :   180      982.88s  13.041%  ------ ||
|| density_on_dbl_grid                  :   180     1295.51s  17.189%  ------ ||
|| ngwf_gradient_build_batch            :    16     1489.62s  19.764%  ------ ||
|| ngwf_gradient_batch                  :    16     1640.04s  21.760%  ------ ||
|| ngwf_gradient_lnv                    :    16     1657.80s  21.996%  ------ ||
|| hamiltonian_lhxc_calculate           :   174     1997.29s  26.500%  ------ ||
|| edft_calculate                       :    16     3502.13s  46.466%  ------ ||
|| ngwf_cg_optimise                     :     1     6593.55s  87.483%  ------ ||
|| total_time                           :     1     7536.94s 100.000%  ------ ||
================================================================================
==================== AVERAGE TIMINGS FROM ALL PROCS (SELF) =====================
++ TAG                                    #calls    cpu time   %total  Gflops ++
++ nlxc_vdw_energy                      :   358      -19.21s  -0.255%  ------ ++
++ work_imbalance                       :     1        0.00s   0.000%  ------ ++
++ paw_sphere_density_on_grid           :     1        0.01s   0.000%  ------ ++
++ paw_dij_hartree                      :   267        0.01s   0.000%  ------ ++
++ paw_tcore_density                    :     1        0.01s   0.000%  ------ ++
++ paw_tcore_hartree_on_grid            :     1        0.01s   0.000%  ------ ++
++ sparse_set_to_garbage                :   291        0.01s   0.000%  ------ ++
++ basis_extract_function_from_box      :   444        0.03s   0.000%  ------ ++
++ ngwfs_initialise_from_radial         :     2        0.03s   0.000%  ------ ++
++ ewald_calculate_energy               :     1        0.10s   0.001%  ------ ++
++ sparse_embed_hotelling_invert_embed  :    33        0.12s   0.002%  ------ ++
++ ngwf_gradient_coeffs                 :    16        0.18s   0.002%  ------ ++
++ paw_dataset_init                     :     3        0.28s   0.004%  ------ ++
++ density_init_guess_real              :     1        0.45s   0.006%  ------ ++
++ pseudo_make_structure_factor         :     1        0.96s   0.013%  ------ ++
++ sparse_init                          :     1        1.08s   0.014%  ------ ++
++ paw_species_calc_proj_prec_mat       :     1        1.26s   0.017%  ------ ++
++ dense_normal_eigensolve              :     1        1.43s   0.019%  ------ ++
++ hartree_on_grid                      :   180        1.59s   0.021%  ------ ++
++ hamiltonian_energy_components        :     4        1.87s   0.025%  ------ ++
++ restart_kernel_write                 :    17        1.96s   0.026%  ------ ++
++ aug_nonlocal_mat                     :   251        2.17s   0.029%  ------ ++
++ main_program_(onetep.F90)            :     1        2.31s   0.031%  ------ ++
++ augmentation_screen_dij              :   187        3.31s   0.044%  ------ ++
++ integrals_locpot_dbl_grid            :   160        4.76s   0.063%  ------ ++
++ sw_init                              :     1        4.98s   0.066%  ------ ++
++ basis_copy_function_to_box           :  7950        5.31s   0.070%  ------ ++
++ ngwf_gradient_lnv                    :    16        6.39s   0.085%  ------ ++
++ paw_dij_xc                           :   267        9.38s   0.124%  ------ ++
++ fourier_apply_box_pair               :  1128       12.24s   0.162%  2.435k ++
++ augmentation_density_on_grid         :   180       13.82s   0.183%  ------ ++
++ density_on_dbl_grid                  :   180       14.85s   0.197%  ------ ++
++ projectors_init_fftbox_recip         :    67       16.58s   0.220%  ------ ++
++ projectors_func_ovlp_box             :    34       27.54s   0.365%  ------ ++
++ basis_dot_function_with_box          : 2.276M      39.71s   0.527%  ------ ++ (!) overhead: ~   6.2%
++ sparse_trace                         :  6466       44.58s   0.591%  ------ ++
++ integrals_kinetic                    :    33       48.19s   0.639%  ------ ++
++ eigenstates_calculate                :     1       49.41s   0.656%  ------ ++
++ edft_calculate                       :    16       50.31s   0.667%  ------ ++
++ eigenstates_pdos                     :     1       55.53s   0.737%  ------ ++
++ ngwf_gradient_build_batch            :    16       59.93s   0.795%  ------ ++
++ hamiltonian_lhxc_calculate           :   174       60.16s   0.798%  ------ ++
++ xc_energy_potential                  :   179       83.05s   1.102%  ------ ++
++ function_ops_brappd_ketppd           :    68       93.15s   1.236%  ------ ++
++ ngwf_gradient_batch                  :    16       98.99s   1.313%  ------ ++
++ density_fftbox_interpolate_multiply  :  5760      114.05s   1.513%  ------ ++
++ basis_add_function_to_box            : 5.685M     119.67s   1.588%  ------ ++ (!) overhead: ~   5.1%
++ density_batch_interp_deposit         :   180      162.77s   2.160%  ------ ++
++ density_fftbox_deposit_to_cell       :  5760      169.16s   2.244%  ------ ++
++ dense_eigensolve                     :   282      194.90s   2.586%  ------ ++
++ cell_grid_deposit_box_real           : 13049      201.52s   2.674%  ------ ++
++ sparse_product                       :  8451      228.30s   3.029%  ------ ++
++ density_batch_row_sums               :   180      229.26s   3.042%  ------ ++
++ integrals_locpot_mat_els_batch       :   160      230.42s   3.057%  ------ ++
++ restart_ngwfs_tightbox_output        :    15      238.74s   3.168%  ------ ++
++ edft_apply_smearing_operator         :   140      259.24s   3.440%  ------ ++
++ edft_diag_ngwf_ham                   :   280      271.65s   3.604%  ------ ++
++ fourier_apply_cell_forward           :  6624      278.85s   3.700%  82.682 ++
++ potential_apply_to_ngwf_batch        :   160      290.43s   3.853%  ------ ++
++ fourier_apply_cell_backward          :  7341      313.01s   4.153%  81.629 ++
++ cell_grid_extract_box_real           :  4962      349.62s   4.639%  ------ ++
++ fourier_apply_box                    : 26956      458.83s   6.088%  4.999k ++
++ projectors_gradient_batch            :    16      463.75s   6.153%  ------ ++
++ properties_calculate                 :     1      532.14s   7.060%  ------ ++
++ ngwf_cg_optimise                     :     1      681.75s   9.045%  ------ ++
++ projectors_grad_precond_batch        :    16      851.49s  11.298%  ------ ++
================================================================================
(!) WARNING: You're wasting precious cycles calling timer. 
             Each pair of timer_clock calls itself cost   1.08 microseconds!
Overhead of generating timer report: 
- 1 ms averaging over threads,
- 25 ms ensuring consistency across MPI ranks,
- 0 ms printing in order.

Job completed: 08-12-2021 06:36 (-0000)

