 +---------------------------------------------------------------+
 |                                                               |
 |        ####### #     # ####### ####### ####### ######         |
 |        #     # ##    # #          #    #       #     #        |
 |        #     # # #   # #          #    #       #     #        |
 |        #     # #  #  # #####      #    #####   ######         |
 |        #     # #   # # #          #    #       #              |
 |        #     # #    ## #          #    #       #              |
 |        ####### #     # #######    #    ####### #              |
 |                                                               |
 |        Linear-Scaling Ab Initio Total Energy Program          |
 |                                                               |
 |          Release for academic collaborators of ODG            |
 |                                             Version 6.1.3.6   |
 |                                                               |
 +---------------------------------------------------------------+
 |                                                               |
 |  Authors:                                                     |
 |  Jacek Dziedzic, Peter D. Haynes, Nicholas D. M. Hine,        |
 |  Arash A. Mostofi, Mike C. Payne and Chris-Kriton Skylaris    |
 |                                                               |
 |  Contributors:                                                |
 |  J. Aarons, L. Andrinopoulos, P. W. Avraam, R. A. Bell,       |
 |  A. Bhandari, G. A. Bramley, R. J. Charlton, S. J. Clark,     |
 |  R. J. Clements, G. C. Constantinescu, F. Corsetti,           |
 |  N. Corsini, O. Dieguez, S. M. M. Dubois, K. K. B. Duff,      |
 |  J. M. Escartin, A. Greco, H. Helal, Q. O. Hill, L. P. Lee,   |
 |  J.-H. Li, E. B. Linscott, G. Moynihan, D. D. O`Regan,        |
 |  O. K. Okan, M. J. S. Phipps, C. J. Pickard,                  |
 |  J. C. A. Prentice, M. I. J. Probert, L. E. Ratcliff,         |
 |  M. Robinson, A. Ruiz Serrano, J. S. Spencer, E. W. Tait,     |
 |  G. Teobaldi, D. Turban, V. Vitale, K. A. Wilkinson,          |
 |  C. Weber, J. C. Womack, N. Yeung and T. J. Zuehlsdorff       |
 |                                                               |
 |                                   Copyright (c) 2004-2021     |
 |                                                               |
 |  Please cite:                                                 |
 |  "The ONETEP linear-scaling density functional theory program"|
 |   J. Chem. Phys. 152(17) 174111 (2020)                        |
 |                                                               |
 |          in all publications arising from your use of ONETEP. |
 |                                                               |
 +---------------------------------------------------------------+
 |                                                               |
 |   ONETEP is based on developments described in the following  |
 |   publications:                                               |
 |                                                               |
 |  "Nonorthogonal generalized Wannier function pseudopotential  |
 |   plane-wave method".                                         |
 |   C.-K. Skylaris, A. A. Mostofi, P. D. Haynes, O. Dieguez,    |
 |   M. C. Payne.                                                |
 |   Phys. Rev. B 66 035119 (2002).                              |
 |                                                               |
 |  "Preconditioned iterative minimization for linear-scaling    |
 |   electronic structure calculations".                         |
 |   A. A. Mostofi, P. D. Haynes, C.-K. Skylaris, M. C. Payne.   |
 |   J. Chem. Phys. 119(17), pp.8842-8848 (2003).                |
 |                                                               |
 |  "Total-energy calculations on a real space grid with         |
 |   localized functions and a plane-wave basis".                |
 |   A. A. Mostofi, C.-K. Skylaris, P. D. Haynes, M. C. Payne.   |
 |   Comput. Phys. Commun. 147, pp.788-802 (2002).               |
 |                                                               |
 |  "Accurate kinetic energy evaluation in electronic structure  |
 |   calculations with localized functions on real space grids"  |
 |   C.-K. Skylaris, A. A. Mostofi, P. D. Haynes, C. J. Pickard, |
 |   M. C. Payne.                                                |
 |   Comput. Phys. Commun. 140, pp.315-322 (2001).               |
 |                                                               |
 |  "Accurate ionic forces and geometry optimization in linear-  |
 |   scaling density-functional theory with local orbitals"      |
 |   N. D. M. Hine, M. Robinson, P. D. Haynes, C.-K. Skylaris,   |
 |   M. C. Payne, and A. A. Mostofi.                             |
 |   Phys. Rev. B 83 195102 (2011).                              |
 |                                                               |
 +---------------------------------------------------------------+

Job started: 14-12-2021 17:28 (-0000)
 
Reading parameters from file "46/592nano.dat" ...... done

If your calculation crashes here, before "Checking processes and threads..."
is displayed, then your stack size is insufficient.
If so, use "ulimit -s unlimited" at runtime.
You can disable this check with "check_stack_size F".

Checking processes and threads...
   Determining the default number of threads...
      No default threads set at compilation time: defaulting to 1.
      OpenMP library call suggests 4 threads.
      Hybrid MPI-OpenMP compilation detected.
      Number of MPI processes > 1.
      OMP_NUM_THREADS environment variable present and
      its value matches the one obtained from the OpenMP library call.
      Using this value as default.
      Default threads: 4
      Default applies to threads_max and threads_num_fftboxes.
      Settings in the input file override this default.
   ... done

   Running with 160 MPI processes.
   There are 16 MPI processes running on the same node as the root process.
   Each MPI process is using: 
               1 threads for simulation cell FFTs.
               1 threads for parallel FFT box operations.
               4 threads for loops over batched FFT box operations.
               4 threads in other parallel regions.
... done

Basic input checks...
Resetting ngwf_cg_rotate to TRUE for EDFT calculations
... done

Reading geometry and species blocks from file "46/592nano.dat" ...    
  Number of PPD points along a3 set to 1.  This is 
  the default value, it may have been provided also in the input file.
... done
 Writing xyz coordinates to file "46/592nano.xyz" ... done


--------------------------------------------------------------------------------
---------------------------------- INPUT FILE ----------------------------------
--------------------------------------------------------------------------------

task : singlepoint                                                              
do_properties : true                                                            
dx_format T                                                                     
edft T                                                                          
edft_spin_fix 3                                                                 
output_detail VERBOSE                                                           
timings_level 3                                                                 
write_xyz T                                                                     
edft_update_scheme: pulay_mix                                                   
edft_ham_diis_size: 10                                                          
edft_trial_step: 0.1                                                            
xc_functional OPTPBE                                                            
cutoff_energy 830 eV                                                            
paw T                                                                           
geom_disp_tol 0.06 bohr                                                         
geom_energy_tol 6E-6 hartree                                                    
geom_force_tol 0.012 "ha/bohr"                                                  
geom_max_iter 25                                                                
EDFT_MAXIT 30                                                                   
pdos_max_l = 2                                                                  
dos_smear  0.1 eV                                                               
popn_calculate T                                                                
PDOS_PSEUDOATOMIC T                                                             
PDOS_REDUCE_SWS F                                                               
PDOS_CONSTRUCT_BASIS F                                                          
PDOS_LOWDIN T                                                                   
PDOS_ORTH_ATOM_BLOCKS F                                                         
PDOS_LCAO_OPTIMIZE F                                                            
pdos_optados_output T                                                           
homo_plot 0                                                                     
lumo_plot 0                                                                     
homo_dens_plot -1                                                               
lumo_dens_plot -1                                                               
%BLOCK SPECIES                                                                  
C C 6 4 9.0                                                                     
H H 1 1 9.0                                                                     
Li Li 3 5 9.0                                                                   
%ENDBLOCK SPECIES                                                               
%BLOCK SPECIES_POT                                                              
C "~/pp/paw/c_pbe_abinit.paw"                                                   
H "~/pp/paw/h_pbe_abinit.paw"                                                   
Li "~/pp/paw/li_pbe_abinit.paw"                                                 
%ENDBLOCK SPECIES_POT                                                           
%BLOCK SPECIES_ATOMIC_SET                                                       
C "SOLVE conf=2s2 2p2"                                                          
H "SOLVE conf=1s1"                                                              
Li "SOLVE conf=1s2 2s1 2p0"                                                     
%ENDBLOCK SPECIES_ATOMIC_SET                                                    
%BLOCK SPECIES_LDOS_GROUPS                                                      
C                                                                               
H                                                                               
Li                                                                              
%ENDBLOCK SPECIES_LDOS_GROUPS                                                   
%BLOCK LATTICE_CART                                                             
94.486315650000      0.000000000000       0.000000000000                        
0.000000000000       94.486315650000      0.000000000000                        
0.000000000000       0.000000000000       94.486315650000                       
%ENDBLOCK LATTICE_CART                                                          
%BLOCK POSITIONS_ABS                                                            
C 42.851150 41.446654 31.488548                                                 
C 38.777168 43.745911 31.634590                                                 
C 41.522153 39.127763 31.032683                                                 
C 45.552372 41.475264 31.520427                                                 
C 37.451058 41.417534 31.222570                                                 
C 37.414051 46.073634 31.780426                                                 
C 54.957540 48.611068 31.329651                                                 
C 54.925333 53.284950 31.314959                                                 
C 53.618523 46.264694 31.418882                                                 
C 38.630091 57.817730 31.883794                                                 
C 42.653884 60.197401 31.748007                                                 
C 37.312574 55.454487 31.937549                                                 
C 53.544958 55.612023 31.422149                                                 
C 45.356407 60.223581 31.712406                                                 
C 46.927496 39.163019 31.227426                                                 
C 41.480213 43.766942 31.731479                                                 
C 34.714735 46.053618 31.572957                                                 
C 50.946975 41.552514 31.266087                                                 
C 53.591369 50.936304 31.523944                                                 
C 34.673085 50.732225 31.708641                                                 
C 41.332351 57.845736 31.964044                                                 
C 38.816557 39.127178 30.843441                                                 
C 54.973745 43.944642 31.115412                                                 
C 49.588237 43.865528 31.600107                                                 
C 37.359533 50.761751 31.978379                                                 
C 49.453455 57.924450 31.717641                                                 
C 34.617529 55.420707 31.677273                                                 
C 57.634756 48.632497 30.866723                                                 
C 50.766465 60.270578 31.385887                                                 
C 57.593517 53.291066 30.801408                                                 
C 37.253499 60.132508 31.542757                                                 
C 54.844596 57.957387 31.068994                                                 
C 50.843082 55.593718 31.723685                                                 
C 46.746018 57.899962 31.877981                                                 
C 41.262097 62.500454 31.411429                                                 
C 46.671469 62.554525 31.334439                                                 
C 46.883099 43.826303 31.724928                                                 
C 50.920873 46.224510 31.658841                                                 
C 38.735650 48.426005 31.985193                                                 
C 38.683379 53.127502 32.062182                                                 
C 49.611638 39.214463 31.106085                                                 
C 33.364084 48.369560 31.512620                                                 
C 42.906925 36.810022 30.688893                                                 
C 53.638468 41.618203 30.985826                                                 
C 34.745329 41.399934 31.081403                                                 
C 33.322063 53.069781 31.495262                                                 
C 45.600755 36.822260 30.859498                                                 
C 33.388968 43.700106 31.298288                                                 
C 58.941976 50.961607 30.528803                                                 
C 53.455720 60.267296 31.051281                                                 
C 49.359208 62.570684 31.173862                                                 
C 38.567154 62.469394 31.276606                                                 
C 50.888809 50.908527 31.791720                                                 
C 42.714046 55.514018 32.092411                                                 
C 42.808350 46.120447 31.940981                                                 
C 57.671865 43.965781 30.838606                                                 
C 58.989220 46.294805 30.652216                                                 
C 33.237941 57.746848 31.470623                                                 
C 34.538164 60.093213 31.361190                                                 
C 58.885001 55.642094 30.367229                                                 
C 49.510939 53.240153 31.888941                                                 
C 45.422291 55.542376 32.047037                                                 
C 57.515899 57.965681 30.523649                                                 
C 49.551370 48.550386 31.849555                                                 
C 41.390378 53.153032 32.139046                                                 
C 42.577291 64.828570 30.995441                                                 
C 41.439323 48.453808 32.060030                                                 
C 45.515011 46.152573 31.917843                                                 
C 45.270954 64.854959 30.947311                                                 
C 37.474936 36.788737 30.243705                                                 
C 46.803258 53.210509 32.042459                                                 
C 42.765496 50.818396 32.129536                                                 
C 46.844907 48.513179 31.982805                                                 
C 41.567123 34.474487 30.116087                                                 
C 33.405061 39.076762 30.627716                                                 
C 50.979420 36.896081 30.657682                                                 
C 55.012925 39.317813 30.502259                                                 
C 30.669797 48.335471 31.078132                                                 
C 46.978528 34.497212 30.515553                                                 
C 30.642056 53.051666 30.980085                                                 
C 30.695961 43.668473 31.088490                                                 
C 45.472207 50.847443 32.087767                                                 
C 61.625862 50.961539 29.885042                                                 
C 38.884142 34.519290 29.949921                                                 
C 34.800018 36.815686 30.167948                                                 
C 37.170648 64.797830 30.793537                                                 
C 59.041333 41.642150 30.627723                                                 
C 54.748810 62.606779 30.505991                                                 
C 50.657191 64.908161 30.621609                                                 
C 61.654641 46.287187 30.112604                                                 
C 30.549192 57.707160 31.220353                                                 
C 61.563744 55.650818 29.744238                                                 
C 33.145090 62.397623 30.925202                                                 
C 41.164227 67.141027 30.582703                                                 
C 58.796366 60.321862 30.012500                                                 
C 46.592334 67.187428 30.434730                                                 
C 49.657893 34.593384 30.524261                                                 
C 29.403380 46.003615 30.943593                                                 
C 62.910827 48.631397 29.655394                                                 
C 53.673627 36.952038 30.561654                                                 
C 62.908151 53.314619 29.626236                                                 
C 57.669116 39.357183 30.478740                                                 
C 29.299252 50.677459 31.031755                                                 
C 42.992268 32.192256 29.906089                                                 
C 34.487029 64.705454 30.590106                                                 
C 38.510909 67.090004 30.632418                                                 
C 29.313936 55.352428 30.962487                                                 
C 30.719727 39.078212 30.767533                                                 
C 45.637659 32.209892 30.104964                                                 
C 29.404058 41.323177 30.978122                                                 
C 57.377493 62.608527 30.103128                                                 
C 53.376614 64.944274 30.604153                                                 
C 49.279357 67.156377 30.346990                                                 
H 37.875195 32.745021 29.552661                                                 
H 33.776152 35.041369 29.778911                                                 
C 62.994437 43.956469 30.225482                                                 
C 61.719871 41.689776 30.506154                                                 
C 62.778488 58.016198 29.333682                                                 
C 29.197229 60.029412 31.196162                                                 
C 30.449748 62.306901 31.056308                                                 
C 61.416209 60.297609 29.425361                                                 
C 42.539644 69.428174 30.130797                                                 
C 45.177072 69.435883 30.024073                                                 
H 64.924275 53.323924 29.120504                                                 
H 64.947489 48.626827 29.196463                                                 
H 50.698477 32.846056 30.019098                                                 
H 41.971258 30.407410 29.602833                                                 
H 29.703756 37.260320 30.655064                                                 
H 27.352923 45.971889 30.489302                                                 
H 37.455615 68.868469 30.387652                                                 
H 33.427558 66.476066 30.300127                                                 
H 58.733870 37.559206 30.318459                                                 
H 27.237904 55.331133 30.703264                                                 
H 46.708178 30.430938 29.991972                                                 
H 54.679913 35.252941 29.859282                                                 
H 27.320849 41.325238 31.011225                                                 
H 27.378902 50.659872 30.192816                                                 
H 58.326954 64.378103 29.520469                                                 
H 50.281644 68.907289 29.794345                                                 
H 65.068147 43.983287 30.007815                                                 
H 62.758983 39.884152 30.553924                                                 
H 54.285439 66.590498 29.680185                                                 
H 64.813402 58.025431 28.912010                                                 
H 29.390529 64.099648 31.006249                                                 
H 27.116064 59.968912 31.236862                                                 
H 41.469910 71.186546 29.838462                                                 
H 62.382372 62.102511 29.060983                                                 
H 46.205540 71.208047 29.660815                                                 
C 44.223693 39.042109 37.472567                                                 
C 36.066772 43.719476 37.437317                                                 
C 40.147339 41.398076 37.495897                                                 
C 41.522513 39.071208 37.457071                                                 
C 49.634893 39.047266 37.191563                                                 
C 37.451208 41.407442 37.348705                                                 
C 48.262267 41.393175 37.388139                                                 
C 53.697723 41.425303 37.181768                                                 
C 45.567956 41.388575 37.517772                                                 
C 52.315066 43.743283 37.296242                                                 
C 36.035817 48.382992 37.726671                                                 
C 37.402338 46.058232 37.662210                                                 
C 45.581409 36.695884 37.378539                                                 
C 35.992409 53.065910 37.915234                                                 
C 33.326197 48.368145 37.601875                                                 
C 53.646128 46.095552 37.326119                                                 
C 52.366471 39.065448 37.143461                                                 
C 33.289094 53.055203 37.860945                                                 
C 56.354217 46.121693 37.069743                                                 
C 33.361581 43.698448 37.262641                                                 
C 49.596686 43.742537 37.447213                                                 
C 37.337094 55.403762 37.942116                                                 
C 48.287444 36.692249 37.267590                                                 
C 41.487497 43.733839 37.646824                                                 
C 37.376139 50.726240 37.883606                                                 
C 35.978735 57.731250 37.858167                                                 
C 56.412681 41.431368 37.071828                                                 
C 56.306722 50.828052 37.061461                                                 
C 53.596322 50.791366 37.279086                                                 
C 53.556768 55.528392 37.247882                                                 
C 31.934773 50.704222 37.780611                                                 
C 45.440783 60.146472 37.732412                                                 
C 41.399216 57.762321 37.869811                                                 
C 57.730548 43.784254 36.898264                                                 
C 31.991413 46.014325 37.406024                                                 
C 52.185215 57.836756 37.462681                                                 
C 44.195348 43.728665 37.649874                                                 
C 48.133473 60.177956 37.677646                                                 
C 40.113158 46.063491 37.740163                                                 
C 40.036188 60.093101 37.740148                                                 
C 49.494074 57.827853 37.659858                                                 
C 52.273406 48.433720 37.466895                                                 
C 57.671720 48.492058 36.921569                                                 
C 40.052608 55.419394 37.953794                                                 
C 56.290741 55.556207 37.094092                                                 
C 52.215939 53.146499 37.355590                                                 
C 44.098926 57.787789 37.844596                                                 
C 40.179170 36.725908 37.322945                                                 
C 31.912696 55.394720 37.781887                                                 
C 44.080030 62.475163 37.597895                                                 
C 36.085311 39.058556 37.145810                                                 
C 33.268465 57.725114 37.702201                                                 
C 37.347111 60.058362 37.788401                                                 
C 57.638231 53.194234 37.003533                                                 
C 41.373249 62.430856 37.517433                                                 
C 48.240115 46.071942 37.641180                                                 
C 40.070946 50.738968 37.924435                                                 
C 48.164470 55.471664 37.753034                                                 
C 44.219273 34.298343 37.377324                                                 
C 53.756943 36.708992 37.280933                                                 
C 53.543759 60.214693 37.370957                                                 
C 49.574131 48.433084 37.656448                                                 
C 49.463741 62.536164 37.575893                                                 
C 41.417023 53.090015 37.955652                                                 
C 45.457943 55.451618 37.876975                                                 
C 49.524191 53.134633 37.640738                                                 
C 45.529141 46.072476 37.725510                                                 
C 41.451191 48.404607 37.856349                                                 
C 31.989039 41.355295 36.984818                                                 
C 37.468044 36.732812 37.203436                                                 
C 49.661950 34.268960 37.272727                                                 
C 41.517911 34.380564 37.215099                                                 
C 57.641021 57.901903 37.151862                                                 
C 57.854263 39.075085 37.074017                                                 
C 33.395448 39.058108 37.110378                                                 
C 45.412166 64.831612 37.539702                                                 
C 44.122737 53.099267 37.916400                                                 
C 48.200304 50.772244 37.752775                                                 
C 29.185719 50.679736 37.932106                                                 
C 44.159055 48.409709 37.837566                                                 
C 60.401796 48.501913 36.717614                                                 
C 52.170375 62.554311 37.452067                                                 
C 45.497356 50.760838 37.862438                                                 
C 60.467984 43.791747 36.640038                                                 
C 29.233461 45.961217 37.551416                                                 
C 56.269727 60.235977 37.296004                                                 
C 56.489650 36.723100 37.350507                                                 
C 29.154451 55.416289 37.707575                                                 
C 48.115419 64.864899 37.592032                                                 
C 60.333046 53.222752 36.801152                                                 
C 52.381433 34.362278 37.525880                                                 
C 35.997463 62.394028 37.656255                                                 
C 31.880634 60.050913 37.418857                                                 
C 40.024479 64.780017 37.242168                                                 
C 45.582174 31.985834 37.121855                                                 
C 27.819877 53.019571 37.992842                                                 
C 61.745300 46.170841 36.716975                                                 
C 27.907268 48.309195 37.986481                                                 
C 61.698991 50.881877 36.580019                                                 
C 48.281138 31.990337 37.080043                                                 
C 29.318423 41.369473 36.895881                                                 
C 33.268895 62.394712 37.651213                                                 
C 60.495681 39.158123 36.653305                                                 
C 37.343132 64.705870 37.367870                                                 
C 60.397206 57.953942 37.001435                                                 
H 36.437681 34.899187 37.204647                                                 
H 40.454925 32.579282 37.242453                                                 
C 61.788084 41.474852 36.439216                                                 
C 44.018347 67.206296 37.505904                                                 
H 32.336934 37.240367 37.068999                                                 
C 61.684034 55.588680 36.677002                                                 
C 27.964682 43.627211 37.295915                                                 
C 41.336526 67.104336 37.271790                                                 
H 57.509798 34.944444 36.929686                                                 
C 27.873157 57.738685 37.478432                                                 
C 29.217261 60.014064 37.325278                                                 
H 53.438494 32.554656 37.607951                                                 
C 53.531941 64.947387 37.644363                                                 
H 44.543153 30.182192 37.037730                                                 
H 25.734735 53.000559 37.932764                                                 
C 57.667483 62.633939 37.405162                                                 
C 49.469618 67.275719 37.694493                                                 
H 63.842023 46.164603 36.870086                                                 
H 28.312412 39.569162 36.626713                                                 
H 25.854736 48.267203 38.359189                                                 
H 63.813791 50.910136 36.519546                                                 
H 49.300648 30.175206 36.956326                                                 
H 61.558644 37.374361 36.513935                                                 
H 32.240002 64.157618 37.135988                                                 
H 36.313194 66.501571 36.994917                                                 
H 63.852068 41.513833 36.172570                                                 
H 63.760347 55.616786 36.315090                                                 
H 25.884598 43.593709 37.397585                                                 
H 25.790659 57.744580 37.389803                                                 
C 61.696692 60.301477 36.906126                                                 
H 40.258387 68.888379 37.218234                                                 
C 45.388872 69.538478 37.465196                                                 
H 28.191700 61.812298 37.088685                                                 
C 52.168326 67.236069 37.821463                                                 
C 56.234512 64.911899 37.759435                                                 
C 60.341990 62.636888 37.169797                                                 
C 48.072033 69.553847 37.618200                                                 
H 63.782897 60.297023 36.826058                                                 
H 44.327973 71.327302 37.524813                                                 
H 53.208198 69.012886 38.158751                                                 
H 57.268898 66.691847 38.097659                                                 
H 61.386992 64.438261 37.235656                                                 
H 49.093664 71.362184 37.727263                                                 
H 28.555138 37.989964 44.151174                                                 
H 40.343215 30.120707 44.665453                                                 
H 32.504185 35.305024 43.858956                                                 
H 36.435824 32.685734 44.503959                                                 
H 45.066674 29.830029 44.576320                                                 
H 26.464297 42.285359 44.183608                                                 
C 41.505817 31.843722 44.537176                                                 
C 29.733488 39.703295 44.100947                                                 
H 61.892682 37.954539 43.450689                                                 
C 33.657433 37.037074 44.044446                                                 
C 37.583271 34.428687 44.406214                                                 
C 44.120532 31.680917 44.479505                                                 
H 49.253129 31.900872 44.581964                                                 
H 64.556479 41.945308 43.338808                                                 
C 28.540699 42.139213 44.172765                                                 
H 65.550214 56.067945 43.766673                                                 
H 26.843326 47.053701 44.131091                                                 
H 27.787307 60.988263 44.760088                                                 
H 53.410740 33.925980 44.294651                                                 
H 57.647322 35.939575 44.039806                                                 
H 30.433005 64.961142 44.710422                                                 
H 27.237743 51.695836 44.811210                                                 
H 65.261237 51.332482 43.469072                                                 
H 43.200063 71.178550 44.412380                                                 
H 63.445252 60.324320 44.173698                                                 
H 27.536560 56.258883 45.057219                                                 
H 64.886000 46.665555 43.300741                                                 
C 32.395241 39.453816 44.075655                                                 
C 40.275464 34.223269 44.531205                                                 
H 47.986414 70.834424 44.512434                                                 
C 36.370090 36.801035 44.222125                                                 
H 38.926369 69.127528 44.229709                                                 
C 60.986371 39.821709 43.535700                                                 
C 62.484338 42.076787 43.450525                                                 
H 34.699106 67.112354 44.485606                                                 
C 48.321717 33.750192 44.354074                                                 
C 63.467042 56.196296 43.808918                                                 
C 28.911296 46.862945 44.390045                                                 
H 59.508840 62.951827 44.508748                                                 
C 29.868641 60.852964 44.721700                                                 
C 45.642611 33.891226 44.400460                                                 
H 51.857090 68.137155 44.326748                                                 
H 55.642423 65.509803 44.686292                                                 
C 30.016022 44.393856 44.150955                                                 
C 31.365684 63.100201 44.611947                                                 
C 52.502567 35.791121 44.001586                                                 
C 62.286614 58.591914 44.034663                                                 
C 56.728375 37.796640 43.712048                                                 
C 44.107550 69.306344 44.413986                                                 
C 29.330993 51.519590 44.750896                                                 
C 63.173247 51.482839 43.497063                                                 
C 29.615287 56.148608 44.796970                                                 
C 62.807822 46.800438 43.400309                                                 
C 46.805432 69.121668 44.523540                                                 
C 49.808683 35.933676 44.131212                                                 
C 58.294444 39.983454 43.555300                                                 
C 39.838824 67.255986 44.216377                                                 
C 54.033443 37.986683 43.616951                                                 
C 30.441126 49.091430 44.512031                                                 
C 61.362842 44.499588 43.466682                                                 
C 35.599637 65.224833 44.363406                                                 
C 41.773432 36.502583 44.234443                                                 
C 62.006381 53.959176 43.726235                                                 
C 33.955408 41.740695 44.010567                                                 
C 31.035311 58.430360 44.543358                                                 
C 45.392236 50.372045 43.588871                                                 
C 30.816767 53.744756 44.845365                                                 
C 37.882266 39.108597 44.076060                                                 
C 61.678931 49.230289 43.463349                                                 
C 46.901630 52.618083 43.627476                                                 
C 58.366230 61.201630 44.357130                                                 
C 42.695871 50.565456 43.648586                                                 
C 46.581084 47.933559 43.539913                                                 
C 44.452216 36.331818 44.157228                                                 
C 34.028707 62.975347 44.390718                                                 
C 50.660845 66.427432 44.324137                                                 
C 42.563290 67.140707 44.294947                                                 
C 32.767421 44.198164 44.075249                                                 
C 54.477354 63.781197 44.525478                                                 
C 59.609321 58.792629 44.144765                                                 
C 45.720976 55.056333 43.684876                                                 
C 49.606849 52.423572 43.672727                                                 
C 41.186782 48.309577 43.654509                                                 
C 45.070915 45.688007 43.554172                                                 
C 38.300807 65.061282 44.221189                                                 
C 41.514840 53.003485 43.741269                                                 
C 49.284310 47.741737 43.527403                                                 
C 47.999855 66.689835 44.398929                                                 
C 40.577395 38.933243 44.002771                                                 
C 36.660353 41.545973 43.946090                                                 
C 42.366774 45.870342 43.601844                                                 
C 43.020865 55.256706 43.749044                                                 
C 50.802312 49.987909 43.621989                                                 
C 48.619883 38.397133 43.896760                                                 
C 55.682722 61.391527 44.429993                                                 
C 33.153748 48.893384 44.296996                                                 
C 52.833129 40.452336 43.529501                                                 
C 57.069796 42.441749 43.512342                                                 
C 51.818470 64.021984 44.159944                                                 
C 58.583134 44.710183 43.556294                                                 
C 45.933018 38.577317 43.888608                                                 
C 46.258256 43.254642 43.572557                                                 
C 38.494039 48.497703 43.782371                                                 
C 34.293399 46.439861 44.050139                                                 
C 33.488233 53.562721 44.435373                                                 
C 50.468811 45.306141 43.503953                                                 
C 38.823188 53.196012 43.875348                                                 
C 51.122783 54.666447 43.818369                                                 
C 40.861354 43.623715 43.671735                                                 
C 50.135670 40.630145 43.647316                                                 
C 47.245090 57.296499 43.742701                                                 
C 33.769965 58.245175 44.350623                                                 
C 59.257848 54.114040 43.810110                                                 
C 42.065246 41.181018 43.741461                                                 
C 38.171396 43.806563 43.778508                                                 
C 48.945844 43.071042 43.545558                                                 
C 44.745170 41.002384 43.696391                                                 
C 58.927053 49.428520 43.599507                                                 
C 37.329106 50.947335 43.927959                                                 
C 35.265322 60.504086 44.262121                                                 
C 36.989482 46.244622 43.839125                                                 
C 34.650644 51.137795 44.214342                                                 
C 54.363633 42.668885 43.480858                                                 
C 53.498408 49.773579 43.712809                                                 
C 49.941291 57.094435 43.819575                                                 
C 43.739520 64.614144 44.241173                                                 
C 41.841972 57.691572 43.868367                                                 
C 58.059935 56.528913 44.002940                                                 
C 34.958041 55.821455 44.245269                                                 
C 53.177574 45.109750 43.511827                                                 
C 57.400582 47.145857 43.607036                                                 
C 39.472310 62.571644 44.137356                                                 
C 37.644192 55.640561 44.005707                                                 
C 57.744202 51.861210 43.781449                                                 
C 54.672892 47.349406 43.604788                                                 
C 46.451314 64.413510 44.218195                                                 
C 53.832582 54.468672 43.946634                                                 
C 55.033429 52.026529 43.905082                                                 
C 39.133807 57.887865 43.978007                                                 
C 46.047965 59.726684 43.841437                                                 
C 37.952283 60.321890 44.107229                                                 
C 54.159278 59.141743 44.133843                                                 
C 43.365714 59.922718 43.927154                                                 
C 50.278116 61.756387 44.014609                                                 
C 42.207662 62.381554 44.110137                                                 
C 51.464319 59.338428 43.975304                                                 
C 55.364759 56.720288 44.042670                                                 
C 47.586138 61.973181 43.995058                                                 
H 43.858944 29.865906 50.268062                                                 
H 28.024770 39.509614 51.655428                                                 
H 48.576800 29.724365 50.227168                                                 
H 60.868889 36.465491 51.182184                                                 
H 63.299861 40.517356 51.416991                                                 
H 25.751237 43.650076 51.911637                                                 
H 28.480445 61.716353 52.030623                                                 
H 25.993600 57.658604 51.995992                                                 
H 36.081734 34.738246 51.245664                                                 
H 39.925651 32.307075 50.452614                                                 
H 32.075020 37.133998 51.625003                                                 
H 63.538193 49.826463 51.153395                                                 
H 36.657165 66.104459 52.030033                                                 
H 63.764375 59.062070 51.954430                                                 
H 44.805604 70.562829 52.567511                                                 
H 63.435532 45.196545 51.149038                                                 
H 32.595585 63.902644 52.016957                                                 
H 52.645682 31.949462 50.462431                                                 
H 56.736081 34.190554 51.037039                                                 
H 63.642667 54.444304 51.548604                                                 
H 61.492515 63.217033 52.279526                                                 
H 40.697454 68.359924 52.078080                                                 
H 49.541380 70.500675 52.441053                                                 
H 25.909842 52.996359 51.796950                                                 
H 25.886468 48.347104 52.228413                                                 
C 44.974481 31.620582 50.165040                                                 
C 47.564915 31.543691 50.144949                                                 
C 29.084965 41.292278 51.493127                                                 
C 59.887412 38.286834 50.967924                                                 
C 27.811268 43.600913 51.615092                                                 
C 61.240197 40.548295 51.114880                                                 
C 28.061793 57.629005 51.728542                                                 
C 29.445549 59.886107 51.758747                                                 
H 57.529308 65.658913 52.153947                                                 
H 53.570102 68.112402 52.070905                                                 
C 41.008108 34.078996 50.267438                                                 
C 37.070416 36.498162 50.676246                                                 
C 33.077099 38.863152 51.001628                                                 
C 61.708252 59.170650 51.644222                                                 
C 45.816040 68.798082 52.130874                                                 
C 60.447685 61.478534 51.816030                                                 
C 51.658300 33.780477 50.327103                                                 
C 48.459503 68.769138 52.042387                                                 
C 55.758923 36.008706 50.779011                                                 
C 61.373149 45.244097 50.846898                                                 
C 61.521069 49.894269 50.598823                                                 
C 33.539075 62.139752 51.388415                                                 
C 37.609001 64.371010 51.339649                                                 
C 27.900733 48.304915 51.690470                                                 
C 27.964013 52.956924 51.435438                                                 
C 61.628227 54.532116 50.986624                                                 
C 41.695072 66.582438 51.649162                                                 
C 43.643397 33.972232 50.100560                                                 
C 49.020152 33.823867 50.106103                                                 
C 31.742678 41.181431 51.076372                                                 
C 57.190566 38.267867 50.720773                                                 
C 29.136751 45.938999 51.404498                                                 
C 60.015008 42.928614 50.817425                                                 
C 29.301286 55.252953 51.321925                                                 
C 39.714513 36.386842 50.275691                                                 
C 32.100257 59.877699 51.293651                                                 
C 35.741690 38.799059 50.706151                                                 
C 53.074462 36.026428 50.485927                                                 
C 56.465843 63.928911 51.693206                                                 
C 52.498708 66.377455 51.656484                                                 
C 29.231382 50.619089 51.384958                                                 
C 45.369999 50.307140 49.352163                                                 
C 60.379627 56.901648 51.075498                                                 
C 60.139466 47.583255 50.676828                                                 
C 44.379391 66.577701 51.633485                                                 
C 36.192700 62.092027 51.183543                                                 
C 60.259477 52.267523 50.678535                                                 
C 40.295927 64.349544 51.354763                                                 
C 57.770313 61.629586 51.458912                                                 
C 49.820891 66.484012 51.594085                                                 
C 44.080415 52.678755 49.448646                                                 
C 48.077859 50.244816 49.359509                                                 
C 43.960840 47.995828 49.361230                                                 
C 53.827703 64.050101 51.463511                                                 
C 45.484236 54.995353 49.548035                                                 
C 49.486653 52.558247 49.453557                                                 
C 45.049352 36.276467 49.891843                                                 
C 41.381831 52.720291 49.561061                                                 
C 49.367064 47.870502 49.386277                                                 
C 47.724758 36.201057 49.915972                                                 
C 33.109143 43.514378 50.679529                                                 
C 41.263545 48.045722 49.469473                                                 
C 45.256013 45.621640 49.353324                                                 
C 31.819205 45.868733 50.839837                                                 
C 55.913221 40.672092 50.330403                                                 
C 57.313936 42.976011 50.370317                                                 
C 32.006776 55.208024 50.840668                                                 
C 33.392149 57.507992 50.787865                                                 
C 48.193075 54.932644 49.554949                                                 
C 39.976804 50.406274 49.581708                                                 
C 47.955934 45.557306 49.372424                                                 
C 51.795024 38.430973 50.096582                                                 
C 41.087087 38.702950 49.919631                                                 
C 37.100854 41.124400 50.184521                                                 
C 57.686161 56.998012 50.643896                                                 
C 31.924786 50.549726 50.773806                                                 
C 45.699228 64.251625 51.051944                                                 
C 57.427251 47.657046 50.208741                                                 
C 56.390971 59.346179 50.834121                                                 
C 37.484089 59.742905 50.582887                                                 
C 48.394906 64.198596 51.057300                                                 
C 57.558988 52.348854 50.201396                                                 
C 41.596277 62.007622 50.734825                                                 
C 40.096367 55.086459 49.792352                                                 
C 44.191074 57.358690 49.792783                                                 
C 52.192464 52.488262 49.590967                                                 
C 52.068237 47.796614 49.541948                                                 
C 39.852323 45.731969 49.598170                                                 
C 49.124774 38.501223 49.810836                                                 
C 43.854063 43.315302 49.452355                                                 
C 43.756418 38.642230 49.749631                                                 
C 35.791462 43.463778 50.185479                                                 
C 53.212954 40.741373 50.004527                                                 
C 33.200288 48.194938 50.510100                                                 
C 33.311836 52.844600 50.508558                                                 
C 39.769751 41.064733 49.857814                                                 
C 41.484118 57.402192 49.914255                                                 
C 56.034221 45.349481 50.047244                                                 
C 53.477961 50.108966 49.643783                                                 
C 41.154088 43.371799 49.586716                                                 
C 36.097408 57.449842 50.406815                                                 
C 52.411127 61.758456 50.858862                                                 
C 37.280149 50.423520 49.854581                                                 
C 56.171368 50.037258 49.954100                                                 
C 49.245230 43.183264 49.496234                                                 
C 40.175940 59.734639 50.355133                                                 
C 49.602473 57.233339 49.823237                                                 
C 56.290449 54.707112 50.159032                                                 
C 44.292477 61.977926 50.570220                                                 
C 45.152538 40.951352 49.541045                                                 
C 37.162984 45.768878 49.874450                                                 
C 37.408924 55.094757 50.056498                                                 
C 53.349565 45.415767 49.703210                                                 
C 47.842104 40.880171 49.568683                                                 
C 35.864029 48.130547 50.020092                                                 
C 51.941321 43.110355 49.679180                                                 
C 36.013309 52.775204 50.134980                                                 
C 45.599043 59.653799 50.087059                                                 
C 53.700245 59.432065 50.496553                                                 
C 49.708937 61.852075 50.627683                                                 
C 53.597813 54.794230 49.850007                                                 
C 48.304427 59.589695 50.111135                                                 
C 52.306398 57.158373 49.990523                                                 
Li 59.826263 41.416613 40.061634                                                
Li 31.847283 60.651268 41.212370                                                
Li 30.616504 42.002706 40.747423                                                
Li 46.445134 67.577177 40.853150                                                
Li 59.773381 60.209228 40.472966                                                
Li 54.404051 62.406449 40.787507                                                
Li 41.177660 64.921916 40.953439                                                
Li 39.530088 35.445547 40.885126                                                
Li 29.186898 54.118751 41.405167                                                
Li 30.916196 47.908455 40.871952                                                
Li 50.998652 37.651949 40.617766                                                
Li 62.555369 53.291599 39.954091                                                
Li 62.630385 52.522958 47.450284                                                
Li 59.726923 46.983482 40.266210                                                
Li 35.204981 39.005884 40.882126                                                
Li 46.812426 33.767264 40.560972                                                
Li 55.265461 35.272230 40.799487                                                
Li 34.838590 64.870678 40.578285                                                
Li 56.325787 64.349918 33.742119                                                
Li 60.228611 47.069393 46.854019                                                
Li 51.450756 67.069249 33.862061                                                
Li 51.721729 64.678164 47.978143                                                
Li 34.817556 64.389776 48.209781                                                
Li 40.941183 64.863572 47.547847                                                
Li 59.743267 59.813740 48.020998                                                
Li 46.686220 67.632011 48.285344                                                
Li 28.235139 49.062748 47.828805                                                
Li 59.695566 40.764718 47.305876                                                
Li 34.168046 36.425259 47.916929                                                
Li 27.901712 48.019560 34.011047                                                
Li 43.982251 67.977742 33.700086                                                
Li 39.813746 36.062602 33.591801                                                
Li 60.949938 58.590268 33.110875                                                
Li 29.879485 43.183216 47.938712                                                
Li 52.147054 34.411167 33.592623                                                
Li 29.046749 53.167826 34.364952                                                
Li 62.783714 48.126698 33.528380                                                
Li 54.778791 37.579511 47.290373                                                
Li 29.915233 58.140544 48.242001                                                
Li 35.067445 63.538123 34.179006                                                
Li 44.212605 33.584109 33.578620                                                
Li 34.660453 37.085508 34.010852                                                
Li 56.053579 37.842394 33.776194                                                
Li 55.071669 53.322299 40.314578                                                
Li 61.915996 53.405972 33.307873                                                
Li 38.993760 34.744440 47.492400                                                
%ENDBLOCK POSITIONS_ABS                                                         

--------------------------------------------------------------------------------
-------------------------------- END INPUT FILE --------------------------------
--------------------------------------------------------------------------------


 
<<<<<<<<<<<<<<<<<<<<<<<<<<<<<<<<< Full system >>>>>>>>>>>>>>>>>>>>>>>>>>>>>>>>>>
<<<<<<<<<<<<<<<<<<<<<<<<<<< PAW Dataset information >>>>>>>>>>>>>>>>>>>>>>>>>>>
File: ~/pp/paw/c_pbe_abinit.paw; rc = 1.25 bohr; shape type =  3; rshape = 1.25 bohr;
  Atomic number:  6;  ionic charge:  4.000000
    Partial Wave 1: l = 0
    Partial Wave 2: l = 0
    Partial Wave 3: l = 1
    Partial Wave 4: l = 1
  Core charge supplied for Nonlinear Core Corrections
File: ~/pp/paw/h_pbe_abinit.paw; rc = 0.90 bohr; shape type =  3; rshape = 0.90 bohr;
  Atomic number:  1;  ionic charge:  1.000000
    Partial Wave 1: l = 0
    Partial Wave 2: l = 0
File: ~/pp/paw/li_pbe_abinit.paw; rc = 1.42 bohr; shape type =  3; rshape = 1.42 bohr;
  Atomic number:  3;  ionic charge:  3.000000
    Partial Wave 1: l = 0
    Partial Wave 2: l = 0
    Partial Wave 3: l = 0
    Partial Wave 4: l = 1
    Partial Wave 5: l = 1
<<<<<<<<<<<<<<<<<<<<<<<<<<<<<<<<<<<<<<< >>>>>>>>>>>>>>>>>>>>>>>>>>>>>>>>>>>>>>>

-------------------------- Atom counting information ---------------------------
Symbol    Natoms    Nngwfs    Nprojs
  C        484      1936      3872
  H        108       108       216
  Li        46       230       414
.......   ......    ......    ......
Totals:    638      2274      4502
--------------------------------------------------------------------------------

=============================== PSINC grid sizes ===============================
                      Simulation cell:  189 x 189 x 189
                              FFT-box:  117 x 117 x 117
                                  PPD:    7 x   7 x   1
Grid space d1=  0.499927596032a0 (KE cutoff=  30.39413Eh = 827.06648eV)
Grid space d2=  0.499927596032a0 (KE cutoff=  30.39413Eh = 827.06648eV)
Grid space d3=  0.499927596032a0 (KE cutoff=  30.39413Eh = 827.06648eV)
================================================================================
  
WARNING in cell_grid_distribute:
Average of less than one 23-slab per proc, so workload cannot be
equally balanced between procs.

********************* Fourier parallelisation information **********************
       Coarse grid (whole simulation cell) dimensions:    189   189   189
          Real-space ('12') slabs/proc (min max mean):      1     2     1
         Recip-space ('23') slabs/proc (min max mean):      0     1     0
********************************************************************************

********************* Fourier parallelisation information **********************
       Double grid (whole simulation cell) dimensions:    378   378   378
          Real-space ('12') slabs/proc (min max mean):      2     3     2
         Recip-space ('23') slabs/proc (min max mean):      1     2     1
********************************************************************************

Atom SCF Calculation for C  : Z (AE atom) =   6 : Z (PS atom) =   4
Config String: 2s2 2p2
Orbitals (num,occ):  2     2.00 2.00
Orbitals   (num,l):  2        0    1
Real-space Grid (nr,dr,rmax): 1377    0.0065406977    9.0000000000
Spherical Bessel Basis (nsws,lmax,cutoff):   37    2  183.0099912382
Confining potential (l,width,scale):  0    3.0000000000  100.0000000000
Confining potential (l,width,scale):  1    3.0000000000  100.0000000000
  1         -5.4795186097   -1.3252230651    4.5135247139   -1.6370402178
  2         -5.4480873667   -1.4027986130    4.4305957006   -1.6109824140
  3         -5.4553175168   -1.4212842775    4.4102621601   -1.6059044058
  4         -5.4627851864   -1.4247099971    4.4065125496   -1.6052912254
  5         -5.4662317525   -1.4266823431    4.4043718731   -1.6049357348
  6         -5.4679531179   -1.4277361345    4.4032352159   -1.6047498153
  7         -5.4688370531   -1.4282876632    4.4026436340   -1.6046546171
  8         -5.4692962224   -1.4285743132    4.4023378281   -1.6046060967
  9         -5.4695360875   -1.4287229388    4.4021801230   -1.6045813828
 10         -5.4696617783   -1.4287999625    4.4020988354   -1.6045687883
 11         -5.4697277645   -1.4288398966    4.4020569195   -1.6045623641
 12         -5.4697624500   -1.4288606199    4.4020352864   -1.6045590836
 13         -5.4697806994   -1.4288713865    4.4020241086   -1.6045574064
 14         -5.4697903086   -1.4288769875    4.4020183254   -1.6045565478
 15         -5.4697953717   -1.4288799052    4.4020153292   -1.6045561077
 16         -5.4697980412   -1.4288814272    4.4020137746   -1.6045558818
 17         -5.4697994496   -1.4288822223    4.4020129668   -1.6045557657
 18         -5.4698001930   -1.4288826382    4.4020125465   -1.6045557059
 19         -5.4698005858   -1.4288828561    4.4020123274   -1.6045556751
 20         -5.4698007933   -1.4288829704    4.4020122131   -1.6045556592
 21         -5.4698009031   -1.4288830304    4.4020121533   -1.6045556509
 22         -5.4698009612   -1.4288830620    4.4020121220   -1.6045556467
Atom SCF converged after  22 iterations to a total energy of     -5.46980096

Atom SCF Calculation for H  : Z (AE atom) =   1 : Z (PS atom) =   1
Config String: 1s1
Orbitals (num,occ):  1     1.00
Orbitals   (num,l):  1        0
Real-space Grid (nr,dr,rmax): 1377    0.0065406977    9.0000000000
Spherical Bessel Basis (nsws,lmax,cutoff):   37    1  183.0099912382
Confining potential (l,width,scale):  0    3.0000000000  100.0000000000
  1         -0.3687944832   -0.2607687933    0.2820952946   -0.2613406499
  2         -0.4328656062   -0.2590521405    0.2895573663   -0.2701762133
  3         -0.4633856573   -0.2560091938    0.2934204754   -0.2757429988
  4         -0.4750266404   -0.2549676794    0.2946557510   -0.2779015032
  5         -0.4793045155   -0.2546870695    0.2949704774   -0.2786577123
  6         -0.4808919118   -0.2546234645    0.2950332622   -0.2789201171
  7         -0.4814942533   -0.2546130669    0.2950388368   -0.2790132353
  8         -0.4817280090   -0.2546133926    0.2950352123   -0.2790473458
  9         -0.4818204053   -0.2546148712    0.2950319888   -0.2790602287
 10         -0.4818574273   -0.2546158825    0.2950301416   -0.2790652181
 11         -0.4818724050   -0.2546164247    0.2950292178   -0.2790671871
 12         -0.4818785049   -0.2546166894    0.2950287833   -0.2790679748
 13         -0.4818810009   -0.2546168128    0.2950285855   -0.2790682928
 14         -0.4818820255   -0.2546168689    0.2950284970   -0.2790684221
 15         -0.4818824471   -0.2546168940    0.2950284580   -0.2790684748
 16         -0.4818826210   -0.2546169051    0.2950284408   -0.2790684964
 17         -0.4818826928   -0.2546169100    0.2950284333   -0.2790685053
Atom SCF converged after  17 iterations to a total energy of     -0.48188269

Atom SCF Calculation for Li : Z (AE atom) =   3 : Z (PS atom) =   3
Config String: 1s2 2s1 2p0
Orbitals (num,occ):  3     2.00 1.00 0.00
Orbitals   (num,l):  3        0    0    1
Real-space Grid (nr,dr,rmax): 1377    0.0065406977    9.0000000000
Spherical Bessel Basis (nsws,lmax,cutoff):   37    2  183.0099912382
Confining potential (l,width,scale):  0    3.0000000000  100.0000000000
Confining potential (l,width,scale):  1    3.0000000000  100.0000000000
  1         -6.1314629607   -4.7499359229    2.5388576516   -1.0480231927
  2         -7.0450508208   -4.1702030791    2.9795337774   -1.2623862962
  3         -7.3518474013   -3.9564527259    3.2037296734   -1.3880788964
  4         -7.4613386962   -3.8947565558    3.2914990517   -1.4402825036
  5         -7.5001516047   -3.8789668192    3.3221434609   -1.4602864917
  6         -7.5136113510   -3.8755528126    3.3322769691   -1.4678164580
  7         -7.5181182589   -3.8751724459    3.3354399675   -1.4706394447
  8         -7.5195538340   -3.8753832694    3.3363346353   -1.4716958846
  9         -7.5199777516   -3.8756112412    3.3365363545   -1.4720903919
 10         -7.5200869011   -3.8757624244    3.3365501247   -1.4722372325
 11         -7.5201065703   -3.8758489541    3.3365264569   -1.4722916218
 12         -7.5201049812   -3.8758952022    3.3365040630   -1.4723116262
 13         -7.5201006323   -3.8759190019    3.3364892955   -1.4723189110
 14         -7.5200980758   -3.8759285770    3.3364824548   -1.4723210036
 15         -7.5200963811   -3.8759342877    3.3364781194   -1.4723220111
 16         -7.5200953120   -3.8759376792    3.3364754203   -1.4723224913
 17         -7.5200946593   -3.8759396866    3.3364737619   -1.4723227171
 18         -7.5200942701   -3.8759408718    3.3364727530   -1.4723228213
 19         -7.5200940419   -3.8759415700    3.3364721439   -1.4723228682
 20         -7.5200939099   -3.8759419808    3.3364717784   -1.4723228886
 21         -7.5200938343   -3.8759422222    3.3364715600   -1.4723228969
Atom SCF converged after  21 iterations to a total energy of     -7.52009383

Determining parallel strategy ...
... using space-filling curve
... NGWF load balancing: max     17;  min     13;  average     14
... Projector load balancing: max     34;  min     25;  average     28
... done
Calculating Ewald energy ...
              Ewald: real-space energy =   37865.761187
        Ewald: reciprocal-space energy =   37457.112545
         Ewald: (sum_charge)**2 Energy =    2926.647089
         Ewald: (sum_charge**2) Energy =     256.682700
                          Ewald Energy =   72139.543943
Basis initialisation ...... NGWF spheres initialised
... Projector spheres initialised
... NGWF tight boxes initialised
... Projector tight boxes initialised
... Tight-boxes gathered
... NGWF basis size (local,global):     285054  45892694
... PAW projector initialisation
... done

============================= Charge Augmentation ==============================
                           Aug box size:   13 x  13 x  13
================================================================================

========================== Sparse matrix information ===========================
                        Overlap matrix filling:  37.25%
                        Density kernel filling: 100.00%
              NGWF-Proj overlap matrix filling:  10.40%
                    Aug Overlap matrix filling:  41.67%
                    Hamiltonian matrix filling:  41.67%
                  NGWF diagonal matrix filling:   0.17%
                             KS matrix filling: 100.00% 
                           KSKS matrix filling: 100.00% 
================================================================================

Sparse matrix initialisation ... done
NGWF initialisation ...... done
============ Calculation of NGWF S^-1 using Hotelling algorithm ================ 
         Iteration  |  Frobenius norm and Maximum abs value    (of I-S*S_n^-1)   
               1       0.47443804E+02     0.99743447E+00
               2       0.47212025E+02     0.99488117E+00
               3       0.46778184E+02     0.98981033E+00
               4       0.46011796E+02     0.97980548E+00
               5       0.44779514E+02     0.96030037E+00
               6       0.43028222E+02     0.92307270E+00
               7       0.40795874E+02     0.85481960E+00
               8       0.38106304E+02     0.80416151E+00
               9       0.35049306E+02     0.78949356E+00
              10       0.31934983E+02     0.76981681E+00
              11       0.28863326E+02     0.74750973E+00
              12       0.25305974E+02     0.72688753E+00
              13       0.20672950E+02     0.68970298E+00
              14       0.14897591E+02     0.64899827E+00
              15       0.90091007E+01     0.58424491E+00
              16       0.48837036E+01     0.48217951E+00
              17       0.28763972E+01     0.36113521E+00
              18       0.16943336E+01     0.29320216E+00
              19       0.85804155E+00     0.21010435E+00
              20       0.34624970E+00     0.11504836E+00
              21       0.94808937E-01     0.35210428E-01
              22       0.88026049E-02     0.33032314E-02
              23       0.77467981E-04     0.29073653E-04
              24       0.60012890E-08     0.22522784E-08
              25       0.68057967E-13     0.53290705E-14
================================================================================
Calculating core density ...
================================= Core Density =================================
               Core den box size:   21 x  21 x  21
================================================================================
 ... done
Up spin density kernel initialisation ...... done
Down spin density kernel initialisation ...... done

Writing density kernel to file "46/592nano.dkn" ... done

>>> Optimising kernel for current NGWFs:

--------------------------- Ensemble-DFT optimisation --------------------------
Running ScaLAPACK on  160 processor(s).

--------------------------------------------------------------------------------
  Iter                              Commutator    Free_energy(A=E-TS)     DeltaA
#    0                          0.001393909420   -3171.80905114764346  -3.17E+03

Step                       =       0.381966011250
Energy (E)                 =   -3171.769855169733
Entropy (-TS)              =      -0.039195977911
Free energy (A=E-TS)       =   -3171.809051147643
Est. 0K Energy 0.5*(E+A)   =   -3171.789453158688
Residual Non-orthogonality =       0.000000000000
Residual N_electrons       =       0.000000000000

Spin          Integrated_Ne            Fermi_level     Delta_Fermi_level
   1      1091.000000000000        -0.223343690740             -2.23E-01
   2      1091.000000000000        -0.223343690738             -2.23E-01

                           Spin 1           |                 Spin 2           |
     Orb |    H-eigenvalues     Occupancies |    H-eigenvalues     Occupancies |
       1 |    -1.9243369113    1.0000000000 |    -1.9243369118    1.0000000000 | 
                          ------                             ------
    1086 |    -0.2385285206    0.9917967700 |    -0.2385285205    0.9917967697 | 
    1087 |    -0.2344783338    0.9711407922 |    -0.2344783337    0.9711407912 | 
    1088 |    -0.2316044480    0.9314092412 |    -0.2316044479    0.9314092389 | 
    1089 |    -0.2248787308    0.6188635398 |    -0.2248787306    0.6188635311 | 
    1090 |    -0.2240306924    0.5540227879 |    -0.2240306931    0.5540228434 | 
                  Finite temp. Fermi level   |      Finite temp. Fermi level  
    1091 |    -0.2233024802    0.4967467294 |    -0.2233024801    0.4967467202 | 
                 - Gap at zero temperature - |     - Gap at zero temperature -
    1092 |    -0.2220612000    0.4001167791 |    -0.2220611999    0.4001167703 | 
    1093 |    -0.2208034878    0.3095695030 |    -0.2208034877    0.3095694952 | 
    1094 |    -0.2191029818    0.2076564533 |    -0.2191029817    0.2076564473 | 
    1095 |    -0.2180648628    0.1588349771 |    -0.2180648627    0.1588349722 | 
                          ------                             ------
    2274 |     0.5558790832    0.0000000000 |     0.5558790827    0.0000000000 | 

                            |  Abs_value |  Threshold | Converged
     Delta_Free_energy/atom |   4.97E+00 |   1.00E-06 |        No
     Delta_Energy/atom      |   4.97E+00 |   1.00E-04 |        No
     Delta_Entropy/atom     |   6.14E-05 |   1.00E-04 |       Yes
     Commutator             |   1.39E-03 |   1.00E-05 |        No
     Delta_Fermi_level      |   2.23E-01 |   1.00E-03 |        No

  Line search of the free energy minimum:
  Step_type        Step             Free_energy   Predicted_free_energy
.   Initial    0.000000    -3171.80905114764346

Performing  Pulay mixing of Hamiltonian with coefficients:
                        Spin 1               Spin 2
                1.000000000000       1.000000000000
Lambda-->      46.476546146647      46.476546143681     ... done

.    Trial1    0.381966    -3169.93401334976261

Performing  Pulay mixing of Hamiltonian with coefficients:
                        Spin 1               Spin 2
                1.000000000000       1.000000000000
Lambda-->      46.476546146647      46.476546143681     ... done

.    Trial2    0.145898    -3172.78309939080191

Performing  Pulay mixing of Hamiltonian with coefficients:
                        Spin 1               Spin 2
[...]
 C   155 -- Li  603       -0.06     -0.00      5.64934
 H   276 -- Li  593       -0.01     -0.00      5.65041
 H   297 -- Li  595       -0.02     -0.00      5.65127
 C   364 -- Li  638       -0.08     -0.00      5.65267
 H   479 -- Li  614       -0.02      0.00      5.65342
 C   263 -- Li  628       -0.07     -0.00      5.65366
 C   202 -- Li  637       -0.06     -0.00      5.65703
 H   273 -- Li  602       -0.01      0.00      5.66225
 H   275 -- Li  608       -0.01     -0.00      5.66459
 C   352 -- Li  630       -0.04     -0.00      5.66476
 C   533 -- Li  619       -0.06     -0.00      5.66688
=============================================================


============== Orbital energy and occupancy information for spin 1 =============

      Total number of orbitals:    2274
        Occupancy sum (kernel):    1091.000000053
   Occupancy sum (eigenvalues):    1091.000000053
                 HOMO-LUMO gap:       0.002082928 Eh
                 Mid-gap level:      -0.075000430 Eh

                        Orbital | Energy (Eh) | Occupancy
                            1    -1.854822915   1.0000000
                        .......   ...........   .........
                         1082    -0.095607997   0.9978789
                         1083    -0.091356064   0.9917344
                         1084    -0.090334696   0.9890147
                         1085    -0.089069838   0.9820062
                         1086    -0.087165492   0.9701690
                         1087    -0.084880420   0.9409989
                         1088    -0.081770358   0.8536237
                         1089    -0.079825160   0.7541572
                         1090    -0.077535495   0.6059760
                         1091    -0.076041894   0.5024140
                        ....... -- gap at 0K -- .........
                         1092    -0.073958966   0.3215335
                         1093    -0.071999606   0.2106937
                         1094    -0.071515243   0.1939819
                         1095    -0.070599136   0.1497599
                         1096    -0.069643956   0.1099779
                         1097    -0.068927545   0.0927704
                         1098    -0.068603214   0.0841349
                         1099    -0.066538577   0.0454667
                         1100    -0.066444092   0.0462784
                         1101    -0.065678583   0.0345043
                        .......   ...........   .........
                         2274     0.768309641   0.0000000

================================================================================

============== Orbital energy and occupancy information for spin 2 =============

      Total number of orbitals:    2274
        Occupancy sum (kernel):    1090.999999947
   Occupancy sum (eigenvalues):    1090.999999947
                 HOMO-LUMO gap:       0.002082927 Eh
                 Mid-gap level:      -0.075000430 Eh

                        Orbital | Energy (Eh) | Occupancy
                            1    -1.854822915   1.0000000
                        .......   ...........   .........
                         1082    -0.095607997   0.9978789
                         1083    -0.091356064   0.9917344
                         1084    -0.090334696   0.9890147
                         1085    -0.089069838   0.9820062
                         1086    -0.087165491   0.9701690
                         1087    -0.084880420   0.9409989
                         1088    -0.081770358   0.8536237
                         1089    -0.079825159   0.7541572
                         1090    -0.077535495   0.6059760
                         1091    -0.076041893   0.5024139
                        ....... -- gap at 0K -- .........
                         1092    -0.073958966   0.3215335
                         1093    -0.071999606   0.2106937
                         1094    -0.071515243   0.1939819
                         1095    -0.070599136   0.1497599
                         1096    -0.069643956   0.1099779
                         1097    -0.068927545   0.0927704
                         1098    -0.068603214   0.0841349
                         1099    -0.066538576   0.0454667
                         1100    -0.066444092   0.0462784
                         1101    -0.065678583   0.0345043
                        .......   ...........   .........
                         2274     0.768309641   0.0000000

================================================================================

===================== Writing canonical molecular orbitals =====================
    Spin 1
| Orbital  Energy (eV)  Norm     |
| HOMO     -2.06920522  1.000000 | Writing "46/592nano_HOMO_UP.cube" ... done
Writing "46/592nano_HOMO_UP.dx" ... done
| LUMO     -2.01252587  1.000000 | Writing "46/592nano_LUMO_UP.cube" ... done
Writing "46/592nano_LUMO_UP.dx" ... done
================================================================================

===================== Writing canonical molecular orbitals =====================
    Spin 2
| Orbital  Energy (eV)  Norm     |
| HOMO     -2.06920520  1.000000 | Writing "46/592nano_HOMO_DN.cube" ... done
Writing "46/592nano_HOMO_DN.dx" ... done
| LUMO     -2.01252587  1.000000 | Writing "46/592nano_LUMO_DN.cube" ... done
Writing "46/592nano_LUMO_DN.dx" ... done
================================================================================

================== Local Density of States (LDOS) calculation ==================
Writing "46/592nano_UP_LDOS.txt" ...  done
================================================================================

================== Local Density of States (LDOS) calculation ==================
Writing "46/592nano_DN_LDOS.txt" ...  done
================================================================================
 
=============== Density of States (DOS) calculation for UP spin ================
Writing "46/592nano_UP_DOS.txt" ...  done
================================================================================
 
============== Density of States (DOS) calculation for DOWN spin ===============
Writing "46/592nano_DN_DOS.txt" ...  done
================================================================================
 
Writing bands to file "46/592nano.val_bands" ... done
 
================ Projected Density of States (pDOS) calculation ================
 
Constructing AM resolved functions  ...... done
Writing NGWF plot files in formats: CUBE DX ...  done
 
Performing overlap integrals ...  done
 
Computing pDOS weights ...  done
 
All bands spilling parameter =   4.02 %
Occupancy-weighted spilling parameter =   0.79 %
 
 => Outputting data for OptaDOS <=
 
Writing pDOS weights to file "46/592nano.val_pdos_bin" ... done
 
Writing band gradients to file "46/592nano.val_dome_bin" ... done
 
Writing Castep output cell file to "46/592nano-out.cell" ... done
 
 => Computing Gaussian smeared pDOS for UP spin<= 
Writing "46/592nano_UP_PDOS.txt" ...  done
 
 => Computing Gaussian smeared pDOS for DOWN spin<= 
Writing "46/592nano_DN_PDOS.txt" ...  done
 
 => Computing Occupancy-weighted Gaussian smeared pDOS for UP spin<= 
Writing "46/592nano_occ_UP_PDOS.txt" ...  done
  => Band centres for UP spin channel: 
 S band centre of group 1:  -19.134066 eV
 P band centre of group 1:   -8.233639 eV
  Band centres for UP spin channel done. <= 
  => Integrated number of electrons in each AM band for UP spin channel: 
 S num electrons of group 1:  312.175976
 P num electrons of group 1:  770.253829
  Integrated number of electrons for UP spin channel done. <= 
 
 => Computing Occupancy-weighted Gaussian smeared pDOS for DOWN spin<= 
Writing "46/592nano_occ_DN_PDOS.txt" ...  done
  => Band centres for DOWN spin channel: 
 S band centre of group 1:  -19.134066 eV
 P band centre of group 1:   -8.233639 eV
  Band centres for DOWN spin channel done. <=
  => Integrated number of electrons in each AM band for DOWN spin channel: 
 S num electrons of group 1:  312.175976
 P num electrons of group 1:  770.253829
  Integrated number of electrons for DOWN spin channel done. <=
================================================================================

------------------------------ TIMING INFORMATION ------------------------------
AVERAGE TIME:   10468.940s on    160 proc(s)                                    
TOTAL TIME:     10468.997s on    160 proc(s)                                    
================= AVERAGE TIMINGS FROM ALL PROCS (CUMULATIVE) ==================
|| TAG                                    #calls    cpu time   %total  Gflops ||
|| work_imbalance                       :     1        0.00s   0.000%  ------ ||
|| paw_tcore_density                    :     1        0.01s   0.000%  ------ ||
|| sparse_set_to_garbage                :   309        0.01s   0.000%  ------ ||
|| paw_dij_hartree                      :   312        0.01s   0.000%  ------ ||
|| paw_sphere_density_on_grid           :     1        0.01s   0.000%  ------ ||
|| ngwfs_initialise_from_radial         :     2        0.03s   0.000%  ------ ||
|| basis_extract_function_from_box      :   483        0.03s   0.000%  ------ ||
|| ewald_calculate_energy               :     1        0.08s   0.001%  ------ ||
|| pseudo_make_structure_factor         :     1        0.24s   0.002%  ------ ||
|| paw_dataset_init                     :     3        0.28s   0.003%  ------ ||
|| paw_tcore_hartree_on_grid            :     1        0.35s   0.003%  ------ ||
|| density_init_guess_real              :     1        0.83s   0.008%  ------ ||
|| dense_normal_eigensolve              :     1        0.97s   0.009%  ------ ||
|| sparse_init                          :     1        1.07s   0.010%  ------ ||
|| paw_species_calc_proj_prec_mat       :     1        1.53s   0.015%  ------ ||
|| restart_kernel_write                 :    18        1.57s   0.015%  ------ ||
|| augmentation_screen_dij              :   218        3.33s   0.032%  ------ ||
|| sw_init                              :     1        5.01s   0.048%  ------ ||
|| ngwf_gradient_coeffs                 :    17        8.59s   0.082%  ------ ||
|| sparse_embed_hotelling_invert_embed  :    35        9.32s   0.089%  ------ ||
|| basis_copy_function_to_box           :  9422        9.59s   0.092%  ------ ||
|| paw_dij_xc                           :   312        9.96s   0.095%  ------ ||
|| hartree_on_grid                      :   211       13.76s   0.131%  ------ ||
|| aug_nonlocal_mat                     :   295       17.78s   0.170%  ------ ||
|| fourier_apply_box_pair               :  1223       17.79s   0.170%  1.817k ||
|| projectors_init_fftbox_recip         :   105       26.78s   0.256%  ------ ||
|| augmentation_density_on_grid         :   211       28.18s   0.269%  ------ ||
|| sparse_trace                         :  9010       28.56s   0.273%  ------ ||
|| basis_dot_function_with_box          : 2.690M      51.68s   0.494%  ------ ||
|| projectors_func_ovlp_box             :    36       64.32s   0.614%  ------ ||
|| eigenstates_pdos                     :     1       71.22s   0.680%  ------ ||
|| integrals_kinetic                    :    35       81.54s   0.779%  ------ ||
|| eigenstates_calculate                :     1      136.55s   1.304%  ------ ||
|| function_ops_brappd_ketppd           :    72      138.07s   1.319%  ------ ||
|| hamiltonian_energy_components        :     4      148.29s   1.416%  ------ ||
|| dense_eigensolve                     :   340      172.26s   1.645%  ------ ||
|| basis_add_function_to_box            : 6.719M     185.94s   1.776%  ------ ||
|| fourier_apply_cell_forward           :  7771      193.07s   1.844% 140.095 ||
|| restart_ngwfs_tightbox_output        :    16      245.18s   2.342%  ------ ||
|| sparse_product                       : 12610      247.88s   2.368%  ------ ||
|| fourier_apply_cell_backward          :  8612      286.65s   2.738% 104.570 ||
|| cell_grid_deposit_box_real           : 15707      295.76s   2.825%  ------ ||
|| cell_grid_extract_box_real           :  6126      419.91s   4.011%  ------ ||
|| density_batch_row_sums               :   422      471.72s   4.506%  ------ ||
|| integrals_locpot_mat_els_batch       :   372      489.77s   4.678%  ------ ||
|| edft_diag_ngwf_ham                   :   338      527.18s   5.036%  ------ ||
|| xc_energy_potential                  :   210      542.58s   5.183%  ------ ||
|| projectors_gradient_batch            :    34      554.64s   5.298%  ------ ||
|| density_fftbox_deposit_to_cell       :  7174      608.20s   5.810%  ------ ||
|| density_fftbox_interpolate_multiply  :  7174      618.01s   5.903%  ------ ||
|| fourier_apply_box                    : 31577      654.54s   6.252%  4.128k ||
|| nlxc_vdw_energy                      :   420      727.01s   6.944%  ------ ||
|| edft_apply_smearing_operator         :   169      820.96s   7.842%  ------ ||
|| potential_apply_to_ngwf_batch        :   372      920.74s   8.795%  ------ ||
|| properties_calculate                 :     1      927.88s   8.863%  ------ ||
|| integrals_locpot_dbl_grid            :   186     1413.89s  13.506%  ------ ||
|| projectors_grad_precond_batch        :    34     1432.43s  13.683%  ------ ||
|| density_batch_interp_deposit         :   422     1603.19s  15.314%  ------ ||
|| ngwf_gradient_build_batch            :    34     2188.80s  20.908%  ------ ||
|| density_on_dbl_grid                  :   211     2222.09s  21.226%  ------ ||
|| ngwf_gradient_batch                  :    34     2386.97s  22.801%  ------ ||
|| hamiltonian_lhxc_calculate           :   205     2841.72s  27.144%  ------ ||
|| ngwf_gradient_lnv                    :    17     3396.84s  32.447%  ------ ||
|| edft_calculate                       :    17     4963.68s  47.413%  ------ ||
|| ngwf_cg_optimise                     :     1     9510.27s  90.843%  ------ ||
|| total_time                           :     1    10468.94s 100.000%  ------ ||
================================================================================
==================== AVERAGE TIMINGS FROM ALL PROCS (SELF) =====================
++ TAG                                    #calls    cpu time   %total  Gflops ++
++ nlxc_vdw_energy                      :   420       -5.56s  -0.053%  ------ ++
++ work_imbalance                       :     1        0.00s   0.000%  ------ ++
++ paw_tcore_density                    :     1        0.00s   0.000%  ------ ++
++ paw_sphere_density_on_grid           :     1        0.01s   0.000%  ------ ++
++ paw_tcore_hartree_on_grid            :     1        0.01s   0.000%  ------ ++
++ sparse_set_to_garbage                :   309        0.01s   0.000%  ------ ++
++ paw_dij_hartree                      :   312        0.01s   0.000%  ------ ++
++ ngwfs_initialise_from_radial         :     2        0.03s   0.000%  ------ ++
++ basis_extract_function_from_box      :   483        0.03s   0.000%  ------ ++
++ ngwf_gradient_coeffs                 :    17        0.07s   0.001%  ------ ++
++ sparse_embed_hotelling_invert_embed  :    35        0.08s   0.001%  ------ ++
++ ewald_calculate_energy               :     1        0.08s   0.001%  ------ ++
++ pseudo_make_structure_factor         :     1        0.24s   0.002%  ------ ++
++ paw_dataset_init                     :     3        0.28s   0.003%  ------ ++
++ density_init_guess_real              :     1        0.46s   0.004%  ------ ++
++ hartree_on_grid                      :   211        0.82s   0.008%  ------ ++
++ dense_normal_eigensolve              :     1        0.97s   0.009%  ------ ++
++ aug_nonlocal_mat                     :   295        1.01s   0.010%  ------ ++
++ sparse_init                          :     1        1.07s   0.010%  ------ ++
++ paw_species_calc_proj_prec_mat       :     1        1.28s   0.012%  ------ ++
++ restart_kernel_write                 :    18        1.57s   0.015%  ------ ++
++ main_program_(onetep.F90)            :     1        2.09s   0.020%  ------ ++
++ augmentation_screen_dij              :   218        2.68s   0.026%  ------ ++
++ hamiltonian_energy_components        :     4        2.71s   0.026%  ------ ++
++ integrals_locpot_dbl_grid            :   186        3.39s   0.032%  ------ ++
++ sw_init                              :     1        5.01s   0.048%  ------ ++
++ augmentation_density_on_grid         :   211        7.33s   0.070%  ------ ++
++ basis_copy_function_to_box           :  9422        9.59s   0.092%  ------ ++
++ paw_dij_xc                           :   312        9.96s   0.095%  ------ ++
++ fourier_apply_box_pair               :  1223       17.79s   0.170%  1.817k ++
++ projectors_init_fftbox_recip         :   105       26.78s   0.256%  ------ ++
++ sparse_trace                         :  9010       28.56s   0.273%  ------ ++
++ projectors_func_ovlp_box             :    36       38.30s   0.366%  ------ ++
++ eigenstates_calculate                :     1       48.30s   0.461%  ------ ++
++ basis_dot_function_with_box          : 2.690M      51.68s   0.494%  ------ ++ (!) overhead: ~   5.6%
++ edft_calculate                       :    17       53.92s   0.515%  ------ ++
++ eigenstates_pdos                     :     1       58.11s   0.555%  ------ ++
++ integrals_kinetic                    :    35       70.06s   0.669%  ------ ++
++ xc_energy_potential                  :   210       81.70s   0.780%  ------ ++
++ ngwf_gradient_build_batch            :    34       84.04s   0.803%  ------ ++
++ hamiltonian_lhxc_calculate           :   205      109.86s   1.049%  ------ ++
++ ngwf_gradient_batch                  :    34      127.41s   1.217%  ------ ++
++ function_ops_brappd_ketppd           :    72      138.07s   1.319%  ------ ++
++ density_on_dbl_grid                  :   211      147.18s   1.406%  ------ ++
++ dense_eigensolve                     :   340      172.26s   1.645%  ------ ++
++ basis_add_function_to_box            : 6.719M     185.94s   1.776%  ------ ++ (!) overhead: ~   3.9%
++ fourier_apply_cell_forward           :  7771      193.07s   1.844% 140.095 ++
++ ngwf_cg_optimise                     :     1      212.01s   2.025%  ------ ++
++ density_fftbox_interpolate_multiply  :  7174      236.61s   2.260%  ------ ++
++ restart_ngwfs_tightbox_output        :    16      245.17s   2.342%  ------ ++
++ sparse_product                       : 12610      247.88s   2.368%  ------ ++
++ edft_apply_smearing_operator         :   169      275.96s   2.636%  ------ ++
++ fourier_apply_cell_backward          :  8612      286.65s   2.738% 104.570 ++
++ cell_grid_deposit_box_real           : 15707      295.76s   2.825%  ------ ++
++ density_fftbox_deposit_to_cell       :  7174      313.99s   2.999%  ------ ++
++ density_batch_interp_deposit         :   422      315.39s   3.013%  ------ ++
++ edft_diag_ngwf_ham                   :   338      355.97s   3.400%  ------ ++
++ density_batch_row_sums               :   422      358.58s   3.425%  ------ ++
++ cell_grid_extract_box_real           :  6126      419.91s   4.011%  ------ ++
++ integrals_locpot_mat_els_batch       :   372      448.43s   4.283%  ------ ++
++ properties_calculate                 :     1      528.89s   5.052%  ------ ++
++ projectors_gradient_batch            :    34      537.13s   5.131%  ------ ++
++ potential_apply_to_ngwf_batch        :   372      562.35s   5.372%  ------ ++
++ fourier_apply_box                    : 31577      654.54s   6.252%  4.128k ++
++ ngwf_gradient_lnv                    :    17     1001.28s   9.564%  ------ ++
++ projectors_grad_precond_batch        :    34     1410.18s  13.470%  ------ ++
================================================================================
(!) WARNING: You're wasting precious cycles calling timer. 
             Each pair of timer_clock calls itself cost   1.08 microseconds!
Overhead of generating timer report: 
- 0 ms averaging over threads,
- 19 ms ensuring consistency across MPI ranks,
- 0 ms printing in order.

Job completed: 14-12-2021 20:22 (-0000)

