 +---------------------------------------------------------------+
 |                                                               |
 |        ####### #     # ####### ####### ####### ######         |
 |        #     # ##    # #          #    #       #     #        |
 |        #     # # #   # #          #    #       #     #        |
 |        #     # #  #  # #####      #    #####   ######         |
 |        #     # #   # # #          #    #       #              |
 |        #     # #    ## #          #    #       #              |
 |        ####### #     # #######    #    ####### #              |
 |                                                               |
 |        Linear-Scaling Ab Initio Total Energy Program          |
 |                                                               |
 |          Release for academic collaborators of ODG            |
 |                                             Version 5.3.2.12  |
 |                                                               |
 +---------------------------------------------------------------+
 |                                                               |
 |  Authors:                                                     |
 |  Jacek Dziedzic, Peter D. Haynes, Nicholas D. M. Hine,        |
 |  Arash. A. Mostofi, Mike C. Payne and Chris-Kriton Skylaris   |
 |                                                               |
 |  Contributors:                                                |
 |  J. Aarons, L. Andrinopoulos, P. W. Avraam, R. A. Bell,       |
 |  A. Bhandari, G. A. Bramley, R. J. Charlton, S. J. Clark,     |
 |  R. J. Clements, G. C. Constantinescu, F. Corsetti,           |
 |  N. Corsini, O. Dieguez, S. M. M. Dubois, K. K. B. Duff,      |
 |  J. M. Escartin, A. Greco, H. Helal, Q. O. Hill, L. P. Lee,   |
 |  J.-H. Li, E. B. Linscott, G. Moynihan, D. D. O`Regan,        |
 |  O. K. Okan, M. J. S. Phipps, C. J. Pickard,                  |
 |  J. C. A. Prentice, M. I. J. Probert, L. E. Ratcliff,         |
 |  M. Robinson, A. Ruiz Serrano, J. S. Spencer, E. W. Tait,     |
 |  G. Teobaldi, D. Turban, V. Vitale, K. A. Wilkinson,          |
 |  C. Weber, J. C. Womack, N. Yeung and T. J. Zuehlsdorff       |
 |                                                               |
 |                                   Copyright (c) 2004-2020     |
 |                                                               |
 |  Please cite:                                                 |
 |  "Introducing ONETEP: Linear-scaling density functional       |
 |   simulations on parallel computers".                         |
 |   C.-K. Skylaris, P. D. Haynes, A. A. Mostofi, M. C. Payne.   |
 |   J. Chem. Phys. 122 084119 (2005).                           |
 |                                                               |
 |          in all publications arising from your use of ONETEP. |
 |                                                               |
 +---------------------------------------------------------------+
 |                                                               |
 |   ONETEP is based on developments described in the following  |
 |   publications:                                               |
 |                                                               |
 |  "Nonorthogonal generalized Wannier function pseudopotential  |
 |   plane-wave method".                                         |
 |   C.-K. Skylaris, A. A. Mostofi, P. D. Haynes, O. Dieguez,    |
 |   M. C. Payne.                                                |
 |   Phys. Rev. B 66 035119 (2002).                              |
 |                                                               |
 |  "Preconditioned iterative minimization for linear-scaling    |
 |   electronic structure calculations".                         |
 |   A. A. Mostofi, P. D. Haynes, C.-K. Skylaris, M. C. Payne.   |
 |   J. Chem. Phys. 119(17), pp.8842-8848 (2003).                |
 |                                                               |
 |  "Total-energy calculations on a real space grid with         |
 |   localized functions and a plane-wave basis".                |
 |   A. A. Mostofi, C.-K. Skylaris, P. D. Haynes, M. C. Payne.   |
 |   Comput. Phys. Commun. 147, pp.788-802 (2002).               |
 |                                                               |
 |  "Accurate kinetic energy evaluation in electronic structure  |
 |   calculations with localized functions on real space grids"  |
 |   C.-K. Skylaris, A. A. Mostofi, P. D. Haynes, C. J. Pickard, |
 |   M. C. Payne.                                                |
 |   Comput. Phys. Commun. 140, pp.315-322 (2001).               |
 |                                                               |
 |  "Accurate ionic forces and geometry optimization in linear-  |
 |   scaling density-functional theory with local orbitals"      |
 |   N. D. M. Hine, M. Robinson, P. D. Haynes, C.-K. Skylaris,   |
 |   M. C. Payne, and A. A. Mostofi.                             |
 |   Phys. Rev. B 83 195102 (2011).                              |
 |                                                               |
 +---------------------------------------------------------------+

Job started: 10-09-2020 17:44 (+0100)
 
Reading parameters from file "20/592nano.dat" ...... done

If your calculation crashes here, before "Checking processes and threads..."
is displayed, then your stack size is insufficient.
If so, use "ulimit -s unlimited" at runtime.
You can disable this check with "check_stack_size F".

Checking processes and threads...
   Determining the default number of threads...
      No default threads set at compilation time: defaulting to 1.
      OpenMP library call suggests 4 threads.
      Hybrid MPI-OpenMP compilation detected.
      Number of MPI processes > 1.
      OMP_NUM_THREADS environment variable present and
      its value matches the one obtained from the OpenMP library call.
      Using this value as default.
      Default threads: 4
      Default applies to threads_max and threads_num_fftboxes.
      Settings in the input file override this default.
   ... done

   Running with 160 MPI processes.
   There are 10 MPI processes running on the same node as the root process.
   Each MPI process is using: 
               1 threads for simulation cell FFTs.
               1 threads for parallel FFT box operations.
               4 threads for loops over batched FFT box operations.
               4 threads in other parallel regions.
... done

Basic input checks...
Resetting ngwf_cg_rotate to TRUE for EDFT calculations
... done

Reading geometry and species blocks from file "20/592nano.dat" ...    
  Number of PPD points along a3 set to 1.  This is 
  the default value, it may have been provided also in the input file.
... done
 Writing xyz coordinates to file "20/592nano.xyz" ... done


--------------------------------------------------------------------------------
---------------------------------- INPUT FILE ----------------------------------
--------------------------------------------------------------------------------

task : singlepoint                                                              
do_properties : true                                                            
ddec_classical_hirshfeld T                                                      
dx_format T                                                                     
edft T                                                                          
edft_spin_fix 3                                                                 
output_detail VERBOSE                                                           
write_xyz T                                                                     
dispersion 4                                                                    
xc_functional PBE                                                               
cutoff_energy 830 eV                                                            
paw T                                                                           
geom_disp_tol 0.015 bohr                                                        
geom_energy_tol 1.5E-6 hartree                                                  
geom_force_tol 0.003 "ha/bohr"                                                  
EDFT_MAXIT 30                                                                   
pdos_max_l = 2                                                                  
dos_smear  0.1 eV                                                               
popn_calculate T                                                                
PDOS_PSEUDOATOMIC T                                                             
PDOS_REDUCE_SWS F                                                               
PDOS_CONSTRUCT_BASIS F                                                          
PDOS_LOWDIN T                                                                   
PDOS_ORTH_ATOM_BLOCKS F                                                         
PDOS_LCAO_OPTIMIZE F                                                            
pdos_optados_output T                                                           
homo_plot 0                                                                     
lumo_plot 0                                                                     
homo_dens_plot -1                                                               
lumo_dens_plot -1                                                               
%BLOCK SPECIES                                                                  
C C 6 4 9.0                                                                     
H H 1 1 9.0                                                                     
Li Li 3 5 9.0                                                                   
%ENDBLOCK SPECIES                                                               
%BLOCK SPECIES_POT                                                              
C "~/pp/paw/c_pbe_abinit.paw"                                                   
H "~/pp/paw/h_pbe_abinit.paw"                                                   
Li "~/pp/paw/li_pbe_abinit.paw"                                                 
%ENDBLOCK SPECIES_POT                                                           
%BLOCK SPECIES_ATOMIC_SET                                                       
C "SOLVE conf=2s2 2p2"                                                          
H "SOLVE conf=1s1"                                                              
Li "SOLVE conf=1s2 2s1 2p0"                                                     
%ENDBLOCK SPECIES_ATOMIC_SET                                                    
%BLOCK SPECIES_LDOS_GROUPS                                                      
C                                                                               
H                                                                               
Li                                                                              
%ENDBLOCK SPECIES_LDOS_GROUPS                                                   
%BLOCK LATTICE_CART                                                             
94.486315650000      0.000000000000       0.000000000000                        
0.000000000000       94.486315650000      0.000000000000                        
0.000000000000       0.000000000000       94.486315650000                       
%ENDBLOCK LATTICE_CART                                                          
%BLOCK POSITIONS_ABS                                                            
C 45.460381 50.688501 30.772077                                                 
C 45.452291 50.599977 36.832461                                                 
C 46.795847 53.027050 30.737456                                                 
C 48.143676 50.592856 36.829457                                                 
C 49.513457 48.377974 30.738921                                                 
C 49.485469 48.260551 36.802769                                                 
C 50.847121 50.715065 30.719934                                                 
C 52.178399 48.253987 36.765887                                                 
C 45.439772 55.351646 30.657204                                                 
C 45.465749 55.258997 36.839770                                                 
C 46.779554 57.689059 30.506277                                                 
C 48.156566 55.249500 36.841879                                                 
C 49.491305 53.037524 30.703748                                                 
C 49.495124 52.916956 36.831927                                                 
C 50.829526 55.371424 30.559914                                                 
C 52.189615 52.907488 36.811798                                                 
C 45.406200 50.469034 43.004364                                                 
C 45.384120 50.407956 49.036185                                                 
C 46.753529 52.801968 43.018014                                                 
C 48.078811 50.420361 49.068048                                                 
C 49.440900 48.138104 42.976117                                                 
C 49.432267 48.089310 49.112284                                                 
C 50.788722 50.467812 42.985547                                                 
C 52.127283 48.103683 49.253120                                                 
C 45.411260 55.135663 43.040396                                                 
C 45.365522 55.078184 49.120543                                                 
C 46.758788 57.472516 43.056990                                                 
C 48.057226 55.092252 49.151056                                                 
C 49.446645 52.798643 43.013303                                                 
C 49.410454 52.766456 49.129318                                                 
C 50.796910 55.131279 43.020630                                                 
C 52.103587 52.783055 49.264981                                                 
C 57.599961 48.413126 30.574703                                                 
C 57.560411 48.233490 36.643010                                                 
C 58.933381 50.739155 30.488088                                                 
C 60.280732 48.229807 36.568225                                                 
C 57.521770 48.142875 42.747999                                                 
C 57.494773 48.143283 49.723685                                                 
C 58.877325 50.463599 42.700964                                                 
C 60.222931 48.166039 49.935590                                                 
C 53.542560 50.724975 30.651116                                                 
C 53.528425 50.576930 36.767750                                                 
C 54.878356 53.053815 30.525547                                                 
C 56.224744 50.566810 36.710757                                                 
C 53.485337 50.466126 42.938875                                                 
C 53.455816 50.450465 49.350507                                                 
C 54.830821 52.792627 42.937395                                                 
C 56.136477 50.472654 49.610370                                                 
C 57.627435 43.770092 30.529366                                                 
C 57.554422 43.579663 36.598066                                                 
C 58.953978 46.089245 30.544980                                                 
C 60.269170 43.591313 36.523293                                                 
C 57.531185 43.484156 42.694251                                                 
C 57.527997 43.476639 49.876765                                                 
C 58.875113 45.810498 42.652484                                                 
C 60.233144 43.513916 50.155395                                                 
C 53.567673 46.073404 30.630617                                                 
C 53.519788 45.924485 36.713509                                                 
C 54.900428 48.403240 30.637817                                                 
C 56.216351 45.916531 36.650740                                                 
C 53.478646 45.806502 42.871177                                                 
C 53.481107 45.782641 49.395930                                                 
C 54.831410 48.137901 42.865507                                                 
C 56.171750 45.814268 49.638918                                                 
C 57.560434 57.682325 30.003264                                                 
C 57.594173 57.540775 36.946808                                                 
C 58.889205 60.035976 29.651112                                                 
C 60.327274 57.500986 36.953440                                                 
C 57.541424 57.453984 42.960761                                                 
C 57.471980 57.480130 49.729859                                                 
C 58.887263 59.797977 43.011829                                                 
C 60.174889 57.477130 49.818194                                                 
C 45.410248 64.671202 29.976839                                                 
C 45.511319 64.590601 36.878734                                                 
C 46.767591 67.009165 29.864513                                                 
C 48.190330 64.587246 36.922840                                                 
C 49.447727 62.337109 29.977571                                                 
C 49.540901 62.236921 36.943404                                                 
C 50.805498 64.698315 29.659817                                                 
C 52.238327 62.226771 37.004586                                                 
C 45.407502 64.478166 42.912901                                                 
C 45.325230 64.392067 49.970346                                                 
C 46.791017 66.814257 42.737504                                                 
C 48.012925 64.408172 49.985343                                                 
C 49.452746 62.134091 42.983683                                                 
C 49.372336 62.083828 49.743113                                                 
C 50.828023 64.492965 42.913291                                                 
C 52.057135 62.101471 49.896941                                                 
C 53.511625 60.016735 30.052363                                                 
C 53.563209 59.887873 36.952508                                                 
C 54.859374 62.377736 29.796650                                                 
C 56.264664 59.873800 37.022835                                                 
C 53.498640 59.779317 42.926584                                                 
C 53.417027 59.781183 49.716968                                                 
C 54.865685 62.141668 42.767619                                                 
C 56.129365 59.789027 49.832039                                                 
C 57.578362 53.053880 30.428284                                                 
C 57.576113 52.888128 36.735021                                                 
C 58.915095 55.377846 30.196031                                                 
C 60.303735 52.869657 36.685275                                                 
C 57.530940 52.793683 42.821903                                                 
C 57.466130 52.819793 49.757773                                                 
C 58.884718 55.140887 42.857991                                                 
C 60.188970 52.829053 50.065993                                                 
C 45.425296 60.006488 30.343139                                                 
C 45.484418 59.917510 36.860097                                                 
C 46.764704 62.340448 30.110156                                                 
C 48.178485 59.906768 36.871353                                                 
C 49.475552 57.694182 30.441895                                                 
C 49.513845 57.576004 36.859869                                                 
C 50.815563 60.018770 30.172871                                                 
C 52.207413 57.565205 36.878031                                                 
C 45.415806 59.804810 43.062168                                                 
C 45.341126 59.740997 49.432686                                                 
C 46.768801 62.138271 43.012417                                                 
C 48.040331 59.758372 49.455320                                                 
C 49.450782 57.466943 43.037502                                                 
C 49.395724 57.436100 49.303425                                                 
C 50.798563 59.799464 42.996459                                                 
C 52.082548 57.445575 49.424429                                                 
C 53.521044 55.373736 30.447944                                                 
C 53.543089 55.227836 36.837318                                                 
C 54.856688 57.702240 30.181887                                                 
C 56.239137 55.210255 36.826197                                                 
C 53.485725 55.122763 42.989520                                                 
C 53.437407 55.119316 49.396380                                                 
C 54.840700 57.458582 42.971076                                                 
C 56.130137 55.138634 49.609055                                                 
H 27.325030 41.252550 30.218496                                                 
H 28.259763 39.577866 36.376322                                                 
H 27.206511 41.162688 42.352782                                                 
H 28.213617 39.312751 50.054734                                                 
H 41.890379 30.277652 29.350440                                                 
C 42.915661 32.070494 29.437053                                                 
H 44.448130 30.185964 37.201634                                                 
H 41.723090 30.009572 42.865278                                                 
C 42.755906 31.802306 42.873035                                                 
H 44.435732 29.986186 49.655262                                                 
H 29.663126 37.230944 29.699501                                                 
C 30.678312 39.028456 29.830116                                                 
H 32.268640 37.243192 36.835395                                                 
H 33.731074 34.922777 29.278561                                                 
C 34.758208 36.709214 29.450467                                                 
H 29.515259 37.094641 42.477485                                                 
C 30.553800 38.881742 42.536318                                                 
H 32.272229 36.968444 50.171941                                                 
H 33.549586 34.709806 42.534054                                                 
C 34.598822 36.487825 42.632903                                                 
H 37.813619 32.598669 29.168774                                                 
C 38.831306 34.389102 29.352455                                                 
H 40.381943 32.518359 37.039908                                                 
H 37.650564 32.335283 42.372198                                                 
C 38.669642 34.122592 42.570710                                                 
H 40.401448 32.309434 50.181523                                                 
H 46.574496 30.297518 29.529172                                                 
H 46.401100 30.046606 43.097023                                                 
H 25.895093 48.263010 36.780539                                                 
C 27.964631 48.282503 36.768427                                                 
H 25.838062 48.058569 50.373266                                                 
C 27.901587 48.060016 50.244371                                                 
H 25.912686 43.628284 36.334565                                                 
H 27.298988 45.914726 30.269335                                                 
C 27.979225 43.617351 36.443484                                                 
H 25.853450 43.366034 50.199375                                                 
H 27.207947 45.840160 42.448612                                                 
C 27.919175 43.370441 50.149484                                                 
H 25.919736 57.694435 37.164448                                                 
H 27.237688 59.950418 29.724028                                                 
C 27.988059 57.679258 37.160559                                                 
H 25.829481 57.412652 49.930007                                                 
H 27.247895 59.829372 43.269586                                                 
C 27.893141 57.427625 49.804822                                                 
H 25.892247 52.972663 37.312355                                                 
H 27.255474 55.254246 29.549468                                                 
C 27.953059 52.967497 37.149086                                                 
H 25.837777 52.743227 50.267228                                                 
H 27.246038 55.201016 42.767521                                                 
C 27.900926 52.738876 50.134368                                                 
C 29.390256 41.252941 30.112251                                                 
C 29.273882 41.377665 36.461250                                                 
C 30.668609 43.635030 30.222839                                                 
C 31.969517 41.305847 36.629999                                                 
C 33.383137 38.976379 29.700131                                                 
C 33.313843 39.028738 36.793031                                                 
C 34.721417 41.333680 29.976553                                                 
C 35.984463 38.953310 36.979544                                                 
C 29.367294 45.931168 30.254243                                                 
C 29.265352 45.989276 36.599722                                                 
C 30.639280 48.265466 30.156427                                                 
C 31.978318 45.971034 36.640174                                                 
C 33.375769 43.635838 30.212097                                                 
C 33.314974 43.652812 36.662765                                                 
C 34.709949 45.973506 30.352402                                                 
C 36.013120 43.634926 36.743599                                                 
C 29.270637 41.141479 42.477465                                                 
C 29.237244 41.107983 50.063159                                                 
C 30.564174 43.516696 42.511862                                                 
C 31.931153 41.040894 50.005866                                                 
C 33.245614 38.791735 42.600544                                                 
C 33.309729 38.753355 50.046874                                                 
C 34.597587 41.152421 42.722936                                                 
C 35.969930 38.710453 50.088511                                                 
C 29.268166 45.838832 42.626648                                                 
C 29.198997 45.751962 50.157110                                                 
C 30.559967 48.170757 42.729069                                                 
C 31.927843 45.729964 49.954872                                                 
C 33.274028 43.487791 42.712474                                                 
C 33.273181 43.402749 49.895587                                                 
C 34.625551 45.828872 42.846674                                                 
C 35.982940 43.394372 49.707072                                                 
C 41.489010 39.038047 29.952829                                                 
C 41.398992 38.953301 36.826575                                                 
C 42.819358 41.356951 30.269741                                                 
C 44.084240 38.950073 36.828847                                                 
C 41.346073 38.791385 42.955848                                                 
C 41.403536 38.740520 49.764520                                                 
C 42.695675 41.130213 43.021695                                                 
C 44.077084 38.740120 49.610526                                                 
C 37.436321 41.337325 30.036019                                                 
C 37.353041 41.311341 36.842305                                                 
C 38.770521 43.667526 30.352500                                                 
C 40.053748 41.287961 36.810496                                                 
C 37.310068 41.138199 42.866865                                                 
C 37.332984 41.076057 49.806632                                                 
C 38.662745 43.473573 42.965871                                                 
C 40.027940 41.063923 49.625543                                                 
C 41.480531 34.364506 29.469345                                                 
C 41.410164 34.307845 36.911786                                                 
C 42.851839 36.715598 29.729782                                                 
C 44.067678 34.272779 37.069577                                                 
C 41.346055 34.092233 42.721868                                                 
C 41.425229 34.103111 50.023145                                                 
C 42.701993 36.443196 42.913835                                                 
C 44.084866 34.063922 49.842003                                                 
C 37.445923 36.655220 29.476443                                                 
C 37.362408 36.655456 36.902666                                                 
C 38.799085 39.023274 29.804065                                                 
C 40.024223 36.593567 36.858674                                                 
C 37.276091 36.410960 42.658576                                                 
C 37.362905 36.421023 49.972143                                                 
C 38.651249 38.789625 42.858079                                                 
C 40.053508 36.383777 50.075682                                                 
C 41.434128 48.333507 30.686975                                                 
C 41.411183 48.280972 36.794839                                                 
C 42.766843 50.675428 30.738141                                                 
C 44.103560 48.273118 36.814624                                                 
C 41.367148 48.137809 43.005132                                                 
C 41.348588 48.058060 49.136046                                                 
C 42.715340 50.470145 43.005705                                                 
C 44.043641 48.066242 49.066828                                                 
C 29.318113 55.260421 29.710901                                                 
C 29.257596 55.291595 37.136045                                                 
C 30.600153 57.590040 29.772166                                                 
C 31.982605 55.305953 36.988108                                                 
C 33.350065 52.950995 30.072373                                                 
C 33.330736 52.955513 36.856501                                                 
C 34.676801 55.285269 30.135454                                                 
C 36.032174 52.954680 36.791854                                                 
C 29.313405 55.188738 42.860892                                                 
C 29.191305 55.055704 49.919070                                                 
C 30.607342 57.488613 43.070468                                                 
C 31.904849 55.062467 49.684915                                                 
C 33.313400 52.835592 42.851547                                                 
C 33.258825 52.713075 49.651171                                                 
C 34.651997 55.156248 42.992933                                                 
C 35.951843 52.711993 49.379899                                                 
C 37.383030 50.647656 30.509965                                                 
C 37.375937 50.620978 36.763206                                                 
C 38.714768 52.987029 30.540396                                                 
C 40.070687 50.614933 36.791321                                                 
C 37.334441 50.480330 42.967165                                                 
C 37.298805 50.384244 49.312009                                                 
C 38.683316 52.812672 43.006501                                                 
C 39.993890 50.388118 49.150227                                                 
C 41.459502 43.675164 30.448876                                                 
C 41.403363 43.618412 36.781107                                                 
C 42.792328 46.011896 30.638433                                                 
C 44.094993 43.611358 36.780400                                                 
C 41.353162 43.466280 43.015118                                                 
C 41.363189 43.392296 49.359016                                                 
C 42.705638 45.802970 43.014204                                                 
C 44.061127 43.397956 49.254565                                                 
C 29.343236 50.585210 29.895772                                                 
C 29.238433 50.612410 36.953855                                                 
C 30.621772 52.918742 29.735291                                                 
C 31.977186 50.622378 36.825704                                                 
C 33.359177 48.281471 30.290706                                                 
C 33.325955 48.298090 36.705050                                                 
C 34.692437 50.627520 30.306677                                                 
C 36.025990 48.296320 36.718182                                                 
C 29.285167 50.506502 42.684197                                                 
C 29.188135 50.382996 50.140571                                                 
C 30.588432 52.844060 42.666041                                                 
C 31.923436 50.382927 49.872079                                                 
C 33.291055 48.155783 42.826241                                                 
C 33.276360 48.059973 49.762449                                                 
C 34.642431 50.486252 42.888764                                                 
C 35.959163 48.054291 49.488318                                                 
C 37.410144 45.986784 30.460002                                                 
C 37.369516 45.965250 36.731866                                                 
C 38.739234 48.319878 30.587601                                                 
C 40.059966 45.953566 36.771792                                                 
C 37.322892 45.815753 42.944222                                                 
C 37.316667 45.723909 49.468095                                                 
C 38.671973 48.141584 42.983253                                                 
C 40.007550 45.723143 49.291113                                                 
C 45.532366 32.082496 29.538436                                                 
C 45.491630 31.968620 37.109323                                                 
C 46.940022 34.389016 29.650892                                                 
C 48.087749 31.960563 37.119951                                                 
H 49.117263 30.169841 37.219346                                                 
H 50.639304 32.662955 29.499091                                                 
C 45.542299 36.726714 29.808970                                                 
C 45.443845 36.612166 36.931605                                                 
C 46.885052 39.065629 30.071220                                                 
C 48.128251 36.604514 36.964121                                                 
C 49.599927 34.444936 29.646018                                                 
C 49.509018 34.256246 37.077323                                                 
C 50.972816 36.745431 29.706734                                                 
C 52.172724 34.295367 37.077821                                                 
C 45.350008 31.824981 43.004377                                                 
C 45.480311 31.766925 49.780290                                                 
C 46.740401 34.124371 42.949602                                                 
C 48.074942 31.758849 49.886837                                                 
H 49.115418 29.972477 49.863327                                                 
H 50.425314 32.374349 42.702701                                                 
C 45.382911 36.458353 42.963973                                                 
C 45.430910 36.400907 49.727830                                                 
C 46.740045 38.801157 42.943799                                                 
C 48.107824 36.404109 49.790336                                                 
C 49.399058 34.167851 42.812352                                                 
C 49.472830 34.058972 50.018139                                                 
C 50.774568 36.443515 42.689719                                                 
C 52.145013 34.105142 50.163348                                                 
H 53.199191 32.505424 37.196299                                                 
H 53.170492 32.323384 50.362771                                                 
C 57.649338 39.153904 30.353167                                                 
C 57.565501 38.905292 36.651635                                                 
C 58.981707 41.420583 30.465177                                                 
C 60.271852 38.971848 36.540482                                                 
C 57.506105 38.835383 42.653741                                                 
C 57.559925 38.785398 50.152521                                                 
C 58.875927 41.123808 42.662626                                                 
C 60.250134 38.884272 50.262125                                                 
C 45.487066 46.025728 30.676831                                                 
C 45.445958 45.941738 36.796729                                                 
C 46.818948 48.362097 30.755054                                                 
C 48.136690 45.936358 36.788919                                                 
C 49.542034 43.721970 30.538636                                                 
C 49.482147 43.603076 36.769708                                                 
C 50.874186 46.057038 30.660377                                                 
C 52.174163 43.599460 36.731700                                                 
C 45.397139 45.804081 43.001643                                                 
C 45.399897 45.737874 49.114025                                                 
C 46.748200 48.134580 42.994398                                                 
C 48.096041 45.749937 49.125120                                                 
C 49.434255 43.481662 42.911891                                                 
C 49.454610 43.417694 49.253129                                                 
C 50.787702 45.807809 42.928926                                                 
C 52.145249 43.435094 49.388245                                                 
C 53.609303 41.428416 30.370445                                                 
C 53.529678 41.270553 36.733506                                                 
C 54.931640 43.749660 30.532845                                                 
C 56.221421 41.266215 36.650302                                                 
C 53.477674 41.152353 42.754863                                                 
C 53.499616 41.111323 49.646846                                                 
C 54.820844 43.473867 42.785895                                                 
C 56.206568 41.138098 49.896535                                                 
H 57.274110 34.855278 36.864946                                                 
H 58.695402 37.369487 30.314846                                                 
H 57.264430 34.703055 50.330490                                                 
H 58.544102 37.050160 42.528641                                                 
C 45.518543 41.372462 30.324981                                                 
C 45.438058 41.281391 36.792179                                                 
C 46.849451 43.703377 30.537737                                                 
C 48.132760 41.280083 36.800384                                                 
C 49.576527 39.088435 30.036089                                                 
C 49.487309 38.948489 36.888784                                                 
C 50.911829 41.406563 30.327556                                                 
C 52.189544 38.946305 36.869928                                                 
C 45.393412 41.139745 42.997113                                                 
C 45.418051 41.075483 49.378903                                                 
C 46.739254 43.469063 42.980877                                                 
C 48.112622 41.082254 49.368351                                                 
C 49.417031 38.808145 42.839335                                                 
C 49.463204 38.753751 49.618902                                                 
C 50.779919 41.144095 42.853028                                                 
C 52.159984 38.763945 49.757901                                                 
C 53.632816 36.809627 29.918251                                                 
C 53.565988 36.581049 36.953144                                                 
C 54.984112 39.088117 30.218578                                                 
C 56.230292 36.641491 36.814914                                                 
C 53.461390 36.493223 42.814270                                                 
C 53.535453 36.392288 50.073120                                                 
C 54.844370 38.784243 42.612315                                                 
C 56.213399 36.474302 50.160379                                                 
H 61.292368 37.172042 36.510127                                                 
H 62.712525 39.698345 30.462186                                                 
H 61.293710 37.104371 50.375113                                                 
H 62.591972 39.396836 42.622486                                                 
H 28.290586 61.721100 37.260258                                                 
H 28.168231 61.448046 49.475687                                                 
C 29.305149 59.962559 29.718590                                                 
C 29.303750 59.918079 37.207644                                                 
C 30.602806 62.235038 29.650400                                                 
C 32.012430 59.984896 37.233042                                                 
C 33.323050 57.626642 29.920791                                                 
C 33.340562 57.622055 37.022733                                                 
C 34.657627 59.958757 29.872878                                                 
C 36.046042 57.625488 36.914553                                                 
H 29.565212 64.021590 29.590112                                                 
H 32.352411 64.053488 37.326285                                                 
C 33.307470 62.327257 29.665627                                                 
C 33.379900 62.267821 37.147985                                                 
C 34.649630 64.609700 29.572406                                                 
C 36.046495 62.317615 37.047633                                                 
C 29.315245 59.853321 43.242871                                                 
C 29.187052 59.651302 49.559303                                                 
C 30.604916 62.093919 43.324266                                                 
C 31.888477 59.718760 49.467855                                                 
C 33.313932 57.498550 43.081155                                                 
C 33.237400 57.374859 49.480161                                                 
C 34.647807 59.815126 43.152021                                                 
C 35.930231 57.377180 49.380090                                                 
H 29.580311 63.888006 43.436273                                                 
H 32.192232 63.776334 49.447629                                                 
C 33.303071 62.168267 43.218014                                                 
C 33.232539 61.989027 49.465302                                                 
C 34.637490 64.444830 43.088124                                                 
C 35.884072 62.040112 49.605149                                                 
C 41.390551 57.666111 30.454779                                                 
C 41.430729 57.604332 36.853709                                                 
C 42.729962 59.995109 30.319760                                                 
C 44.126210 57.596954 36.847014                                                 
C 41.377392 57.479585 43.076657                                                 
C 41.316540 57.392074 49.275706                                                 
C 42.720588 59.812713 43.076511                                                 
C 44.007861 57.407513 49.250611                                                 
C 37.354923 59.971501 30.058359                                                 
C 37.395510 59.945533 36.956123                                                 
C 38.683064 62.306610 29.915126                                                 
C 40.091179 59.940199 36.917802                                                 
C 37.338909 59.818323 43.113724                                                 
C 37.257042 59.696188 49.471410                                                 
C 38.673626 62.151502 43.035610                                                 
C 39.955588 59.710341 49.484703                                                 
C 41.411419 53.001457 30.671191                                                 
C 41.419814 52.941357 36.813637                                                 
C 42.746633 55.338715 30.627087                                                 
C 44.111583 52.933976 36.831901                                                 
C 41.375909 52.808109 43.017018                                                 
C 41.332504 52.724337 49.103911                                                 
C 42.721623 55.139670 43.043543                                                 
C 44.029259 52.738068 49.061771                                                 
C 37.363515 55.308338 30.364086                                                 
C 37.384963 55.283863 36.828696                                                 
C 38.700280 57.653018 30.320814                                                 
C 40.075929 55.278079 36.822303                                                 
C 37.347734 55.148258 43.041286                                                 
C 37.288719 55.043652 49.288412                                                 
C 38.690089 57.481788 43.091014                                                 
C 39.976586 55.052551 49.189311                                                 
C 41.357147 67.011043 29.753008                                                 
C 41.510054 66.909038 36.968913                                                 
C 42.767432 69.316315 29.795486                                                 
C 44.159082 66.931495 36.855619                                                 
C 41.347872 66.841278 42.746146                                                 
C 41.270680 66.662457 50.282303                                                 
C 42.775297 69.134715 42.745983                                                 
C 43.931154 66.722419 50.216119                                                 
H 37.663805 68.757032 29.541914                                                 
H 40.493118 68.709964 37.042982                                                 
H 37.651341 68.589648 42.509925                                                 
H 40.234237 68.432394 50.563794                                                 
C 41.376613 62.319118 30.053355                                                 
C 41.464119 62.264398 36.971740                                                 
C 42.731744 64.667783 29.927060                                                 
C 44.146034 62.260062 36.895255                                                 
C 41.367802 62.149212 43.027407                                                 
C 41.294941 62.028678 49.760695                                                 
C 42.722578 64.493222 42.923445                                                 
C 43.977868 62.049612 49.706145                                                 
H 33.606898 66.388497 29.419922                                                 
H 33.588250 66.228411 43.105174                                                 
C 37.305716 64.671899 29.661681                                                 
C 37.435209 64.592244 37.078893                                                 
C 38.694748 66.967826 29.643775                                                 
C 40.107515 64.632835 37.127480                                                 
C 37.290638 64.510935 42.899287                                                 
C 37.244461 64.315695 49.923971                                                 
C 38.680286 66.806272 42.686707                                                 
C 39.901174 64.362110 50.138636                                                 
C 61.693389 41.497355 30.470830                                                 
C 61.557975 41.208890 36.475064                                                 
C 62.976922 43.735645 30.464960                                                 
H 63.624153 41.231258 36.392905                                                 
C 61.672721 46.112088 30.488022                                                 
C 61.556170 45.881834 36.500103                                                 
C 62.951320 48.411612 30.431336                                                 
H 63.623687 45.878999 36.436179                                                 
H 65.045325 43.760184 30.440317                                                 
C 61.571138 41.193228 42.627379                                                 
C 61.530466 41.147610 50.258009                                                 
C 62.886172 43.451780 42.567196                                                 
H 63.595017 41.180479 50.377321                                                 
C 61.604681 45.834003 42.547262                                                 
C 61.526692 45.842697 50.039554                                                 
C 62.904903 48.137771 42.522172                                                 
H 63.588762 45.856994 50.216556                                                 
H 64.953113 43.449755 42.525801                                                 
C 61.634460 55.366340 30.131424                                                 
C 61.602621 55.197445 36.784403                                                 
C 62.909909 57.740936 29.914967                                                 
H 63.670822 55.190664 36.774096                                                 
H 65.005432 53.081633 30.214573                                                 
C 61.606687 55.129990 42.795293                                                 
C 61.470982 55.171227 49.950121                                                 
C 62.892415 57.499419 42.987476                                                 
H 63.537448 55.186602 50.047251                                                 
H 64.974072 52.818810 42.632864                                                 
C 61.655463 50.744349 30.405748                                                 
C 61.574361 50.543058 36.578091                                                 
C 62.935853 53.074397 30.263570                                                 
H 65.020858 48.416960 30.378566                                                 
C 61.620208 50.462563 42.578001                                                 
C 61.495668 50.498958 50.046967                                                 
C 62.906581 52.812551 42.661701                                                 
H 64.971563 48.129358 42.447439                                                 
H 41.720626 71.098829 29.755156                                                 
H 44.532659 71.011076 36.711831                                                 
H 41.749867 70.930187 42.716573                                                 
H 44.283483 70.809939 50.425964                                                 
C 45.356052 69.310905 29.856136                                                 
C 45.575892 69.227318 36.774968                                                 
H 46.400595 71.094961 29.870737                                                 
C 48.164871 69.233718 36.823538                                                 
C 49.416640 66.978963 29.749409                                                 
C 49.572386 66.932220 36.954542                                                 
H 50.438522 68.775271 29.651486                                                 
C 52.236973 66.887538 37.033642                                                 
H 49.209471 71.018293 36.792730                                                 
C 45.374448 69.122315 42.746831                                                 
C 45.332289 69.030314 50.338215                                                 
H 46.423488 70.903821 42.709686                                                 
C 47.950906 69.050079 50.339895                                                 
C 49.449181 66.775355 42.855411                                                 
C 49.386082 66.760207 50.235934                                                 
H 50.480463 68.563794 42.733621                                                 
C 52.034204 66.742415 50.323266                                                 
H 48.975763 70.842478 50.430467                                                 
H 57.331073 66.305578 37.234857                                                 
H 57.122724 66.198864 50.490847                                                 
H 53.269893 68.678447 37.051287                                                 
H 53.048335 68.536689 50.498038                                                 
C 57.531078 62.316723 29.664564                                                 
C 57.616828 62.243288 37.142341                                                 
H 58.562976 64.099106 29.469008                                                 
C 60.331458 62.145409 37.185271                                                 
C 57.537170 62.074370 42.922459                                                 
C 57.471320 62.148544 50.068084                                                 
H 58.579138 63.860779 42.875598                                                 
C 60.173497 62.091189 49.949033                                                 
C 53.483070 64.652192 29.681483                                                 
C 53.620370 64.593627 37.094109                                                 
C 56.284171 64.524266 37.145790                                                 
C 53.490257 64.433802 42.841347                                                 
C 53.413519 64.473080 50.220564                                                 
C 56.095381 64.417472 50.284198                                                 
C 61.607489 59.971771 29.671278                                                 
C 61.621830 59.883263 37.099255                                                 
H 62.623467 61.764785 29.491085                                                 
H 63.688312 59.864130 37.116751                                                 
H 64.979055 57.745110 29.928947                                                 
H 61.368901 63.930924 37.282455                                                 
C 61.586081 59.729792 43.095815                                                 
C 61.462533 59.851288 49.802487                                                 
H 62.600049 61.527448 43.216209                                                 
H 63.528191 59.842454 49.702729                                                 
H 64.960786 57.488540 43.024188                                                 
H 61.195577 63.889636 49.985993                                                 
H 63.556424 50.514620 50.228015                                                 
H 36.342451 34.637744 50.227107                                                 
H 36.194242 66.090554 50.111583                                                 
H 27.224297 50.516196 42.509810                                                 
H 54.526647 66.216192 42.685633                                                 
H 63.641709 50.534276 36.532152                                                 
H 54.484727 34.706419 42.602079                                                 
H 36.323029 34.871827 37.021551                                                 
H 36.414837 66.384040 37.240081                                                 
H 54.506774 66.440397 29.500804                                                 
H 27.281224 50.562924 29.721675                                                 
H 54.684010 35.032918 29.781494                                                 
Li 59.005343 60.035528 33.577584                                                
Li 30.367842 43.522160 46.497369                                                
Li 43.998399 34.187790 33.110266                                                
Li 46.716035 66.988274 46.677741                                                
Li 60.360521 43.643010 46.160873                                                
Li 31.928181 60.171957 33.283494                                                
Li 51.092418 64.714260 33.529585                                                
Li 39.789475 64.983914 33.273278                                                
Li 60.498920 52.640237 46.204493                                                
Li 30.127175 52.582653 46.486384                                                
Li 35.593044 38.667267 46.202244                                                
Li 55.365325 38.508578 46.481259                                                
Li 35.952005 38.505975 33.140065                                                
Li 50.938943 36.414773 33.538299                                                
Li 39.774127 35.431813 46.292383                                                
Li 50.892383 35.831002 46.506680                                                
Li 54.927103 62.550038 46.594254                                                
Li 39.554507 65.406487 46.404016                                                
Li 30.119676 53.063834 33.553377                                                
Li 28.745400 47.492400 33.494640                                                
%ENDBLOCK POSITIONS_ABS                                                         

--------------------------------------------------------------------------------
-------------------------------- END INPUT FILE --------------------------------
--------------------------------------------------------------------------------


 
<<<<<<<<<<<<<<<<<<<<<<<<<<<<<<<<< Full system >>>>>>>>>>>>>>>>>>>>>>>>>>>>>>>>>>
<<<<<<<<<<<<<<<<<<<<<<<<<<< PAW Dataset information >>>>>>>>>>>>>>>>>>>>>>>>>>>
File: ~/pp/paw/c_pbe_abinit.paw; rc = 1.25 bohr; shape type =  3; rshape = 1.25 bohr;
  Atomic number:  6;  ionic charge:  4.000000
    Partial Wave 1: l = 0
    Partial Wave 2: l = 0
    Partial Wave 3: l = 1
    Partial Wave 4: l = 1
  Core charge supplied for Nonlinear Core Corrections
File: ~/pp/paw/h_pbe_abinit.paw; rc = 0.90 bohr; shape type =  3; rshape = 0.90 bohr;
  Atomic number:  1;  ionic charge:  1.000000
    Partial Wave 1: l = 0
    Partial Wave 2: l = 0
File: ~/pp/paw/li_pbe_abinit.paw; rc = 1.42 bohr; shape type =  3; rshape = 1.42 bohr;
  Atomic number:  3;  ionic charge:  3.000000
    Partial Wave 1: l = 0
    Partial Wave 2: l = 0
    Partial Wave 3: l = 0
    Partial Wave 4: l = 1
    Partial Wave 5: l = 1
<<<<<<<<<<<<<<<<<<<<<<<<<<<<<<<<<<<<<<< >>>>>>>>>>>>>>>>>>>>>>>>>>>>>>>>>>>>>>>

-------------------------- Atom counting information ---------------------------
Symbol    Natoms    Nngwfs    Nprojs
  C        484      1936      3872
  H        108       108       216
  Li        20       100       180
.......   ......    ......    ......
Totals:    612      2144      4268
--------------------------------------------------------------------------------

=============================== PSINC grid sizes ===============================
                      Simulation cell:  189 x 189 x 189
                              FFT-box:  117 x 117 x 117
                                  PPD:    7 x   7 x   1
Grid space d1=  0.499927596032a0 (KE cutoff=  30.39413Eh = 827.06648eV)
Grid space d2=  0.499927596032a0 (KE cutoff=  30.39413Eh = 827.06648eV)
Grid space d3=  0.499927596032a0 (KE cutoff=  30.39413Eh = 827.06648eV)
================================================================================
  
WARNING in cell_grid_distribute:
Average of less than one 23-slab per node, so workload cannot be
equally balanced between nodes.

********************* Fourier parallelisation information **********************
       Coarse grid (whole simulation cell) dimensions:    189   189   189
          Real-space ('12') slabs/node (min max mean):      1     2     1
         Recip-space ('23') slabs/node (min max mean):      0     1     0
********************************************************************************

********************* Fourier parallelisation information **********************
       Double grid (whole simulation cell) dimensions:    378   378   378
          Real-space ('12') slabs/node (min max mean):      2     3     2
         Recip-space ('23') slabs/node (min max mean):      1     2     1
********************************************************************************

Atom SCF Calculation for C  : Z (AE atom) =   6 : Z (PS atom) =   4
Config String: 2s2 2p2
Orbitals (num,occ):  2     2.00 2.00
Orbitals   (num,l):  2        0    1
Real-space Grid (nr,dr,rmax): 1377    0.0065406977    9.0000000000
Spherical Bessel Basis (nsws,lmax,cutoff):   37    2  183.0099912382
Confining potential (l,width,scale):  0    3.0000000000  100.0000000000
Confining potential (l,width,scale):  1    3.0000000000  100.0000000000
  1         -5.4350126632   -1.2715272878    4.5135247139   -1.5681949477
  2         -5.3876836850   -1.3562195125    4.4235426751   -1.5380057521
  3         -5.3928844498   -1.3758175853    4.4021699684   -1.5318377811
  4         -5.3988962903   -1.3800385428    4.3975423583   -1.5307324410
  5         -5.4018428823   -1.3823489590    4.3950111904   -1.5301555648
  6         -5.4033571720   -1.3835805046    4.3936635548   -1.5298576834
  7         -5.4041480647   -1.3842324820    4.3929512000   -1.5297032953
  8         -5.4045641108   -1.3845769138    4.3925755232   -1.5296229456
  9         -5.4047838258   -1.3847587737    4.3923775340   -1.5295810042
 10         -5.4049001347   -1.3848548089    4.3922731819   -1.5295590658
 11         -5.4049618018   -1.3849055476    4.3922181562   -1.5295475724
 12         -5.4049945351   -1.3849323732    4.3921891206   -1.5295415432
 13         -5.4050119258   -1.3849465673    4.3921737867   -1.5295383767
 14         -5.4050211723   -1.3849540841    4.3921656816   -1.5295367119
 15         -5.4050260920   -1.3849580684    4.3921613935   -1.5295358358
 16         -5.4050287113   -1.3849601822    4.3921591228   -1.5295353742
 17         -5.4050301068   -1.3849613045    4.3921579192   -1.5295351307
 18         -5.4050308507   -1.3849619010    4.3921572806   -1.5295350022
 19         -5.4050312476   -1.3849622183    4.3921569415   -1.5295349343
 20         -5.4050314594   -1.3849623873    4.3921567612   -1.5295348984
 21         -5.4050315725   -1.3849624773    4.3921566653   -1.5295348794
 22         -5.4050316330   -1.3849625253    4.3921566143   -1.5295348693
Atom SCF converged after  22 iterations to a total energy of     -5.40503163

Atom SCF Calculation for H  : Z (AE atom) =   1 : Z (PS atom) =   1
Config String: 1s1
Orbitals (num,occ):  1     1.00
Orbitals   (num,l):  1        0
Real-space Grid (nr,dr,rmax): 1377    0.0065406977    9.0000000000
Spherical Bessel Basis (nsws,lmax,cutoff):   37    1  183.0099912382
Confining potential (l,width,scale):  0    3.0000000000  100.0000000000
  1         -0.3605254152   -0.2399954029    0.2820952946   -0.2424203210
  2         -0.4156854077   -0.2398249290    0.2871789324   -0.2464796203
  3         -0.4412552402   -0.2379720642    0.2899127187   -0.2499011370
  4         -0.4517265951   -0.2371980236    0.2908966173   -0.2514141636
  5         -0.4557775773   -0.2369735141    0.2911607883   -0.2519713623
  6         -0.4573363459   -0.2369240355    0.2912108681   -0.2521663171
  7         -0.4579443228   -0.2369187864    0.2912112833   -0.2522344454
  8         -0.4581858602   -0.2369215483    0.2912049187   -0.2522587615
  9         -0.4582834939   -0.2369242589    0.2912002081   -0.2522677042
 10         -0.4583235236   -0.2369258837    0.2911975892   -0.2522710965
 11         -0.4583401154   -0.2369267223    0.2911962825   -0.2522724192
 12         -0.4583470483   -0.2369271266    0.2911956643   -0.2522729467
 13         -0.4583499624   -0.2369273145    0.2911953803   -0.2522731607
 14         -0.4583511926   -0.2369274000    0.2911952521   -0.2522732486
 15         -0.4583517136   -0.2369274385    0.2911951948   -0.2522732850
 16         -0.4583519349   -0.2369274556    0.2911951693   -0.2522733002
 17         -0.4583520290   -0.2369274632    0.2911951581   -0.2522733066
Atom SCF converged after  17 iterations to a total energy of     -0.45835203

Atom SCF Calculation for Li : Z (AE atom) =   3 : Z (PS atom) =   3
Config String: 1s2 2s1 2p0
Orbitals (num,occ):  3     2.00 1.00 0.00
Orbitals   (num,l):  3        0    0    1
Real-space Grid (nr,dr,rmax): 1377    0.0065406977    9.0000000000
Spherical Bessel Basis (nsws,lmax,cutoff):   37    2  183.0099912382
Confining potential (l,width,scale):  0    3.0000000000  100.0000000000
Confining potential (l,width,scale):  1    3.0000000000  100.0000000000
  1         -6.0640888065   -4.6655401716    2.5388576516   -0.9989538799
  2         -6.9627542978   -4.0954079129    2.9808988108   -1.1965571426
  3         -7.2692687601   -3.8889996707    3.2029735703   -1.3193883705
  4         -7.3784440298   -3.8322099748    3.2868571989   -1.3711018151
  5         -7.4170278248   -3.8191968371    3.3144974220   -1.3911175539
  6         -7.4303549880   -3.8172386945    3.3228486489   -1.3986896266
  7         -7.4348052089   -3.8175483495    3.3251259310   -1.4015352495
  8         -7.4362242328   -3.8180607346    3.3256233205   -1.4026016384
  9         -7.4366459715   -3.8184145665    3.3256561549   -1.4029998726
 10         -7.4367560626   -3.8186169740    3.3256001574   -1.4031477379
 11         -7.4367765260   -3.8187239825    3.3255481763   -1.4032021548
 12         -7.4367751741   -3.8187782620    3.3255144587   -1.4032219192
 13         -7.4367707398   -3.8188051288    3.3254952336   -1.4032289600
 14         -7.4367680349   -3.8188156035    3.3254870176   -1.4032309087
 15         -7.4367661982   -3.8188217406    3.3254819951   -1.4032318132
 16         -7.4367650112   -3.8188253257    3.3254789583   -1.4032322224
 17         -7.4367642682   -3.8188274151    3.3254771375   -1.4032324006
 18         -7.4367638134   -3.8188286307    3.3254760529   -1.4032324736
 19         -7.4367635392   -3.8188293370    3.3254754103   -1.4032325004
 20         -7.4367633760   -3.8188297469    3.3254750310   -1.4032325080
 21         -7.4367632796   -3.8188299846    3.3254748079   -1.4032325082
Atom SCF converged after  21 iterations to a total energy of     -7.43676328

Determining parallel strategy ...
... using space-filling curve
... NGWF load balancing: max     16;  min     12;  average     13
... Projector load balancing: max     32;  min     24;  average     27
... done
Calculating Ewald energy ...
              Ewald: real-space energy =   35956.213053
        Ewald: reciprocal-space energy =   34898.027201
         Ewald: (sum_charge)**2 Energy =    2759.150690
         Ewald: (sum_charge**2) Energy =     247.692785
                          Ewald Energy =   67847.396781
======================= Empirical dispersion information =======================
Model : Grimme D2
Dispersion Correction Energy: -0.20629265E+01 Hartree
================================================================================
Basis initialisation ...... NGWF spheres initialised
... Projector spheres initialised
... NGWF tight boxes initialised
... Projector tight boxes initialised
... Tight-boxes gathered
... NGWF basis size (local,global):     266651  43254912
... PAW projector initialisation
... done

============================= Charge Augmentation ==============================
                           Aug box size:   13 x  13 x  13
================================================================================

========================== Sparse matrix information ===========================
                        Overlap matrix filling:  38.29%
                        Density kernel filling: 100.00%
              NGWF-Proj overlap matrix filling:  10.80%
                    Aug Overlap matrix filling:  42.44%
                    Hamiltonian matrix filling:  42.44%
                  NGWF diagonal matrix filling:   0.18%
                             KS matrix filling: 100.00% 
                           KSKS matrix filling: 100.00% 
================================================================================

Sparse matrix initialisation ... done
NGWF initialisation ...... done
============ Calculation of NGWF S^-1 using Hotelling algorithm ================ 
         Iteration  |  Frobenius norm and Maximum abs value    (of I-S*S_n^-1)   
               1       0.45960210E+02     0.99608009E+00
               2       0.45635854E+02     0.99218833E+00
               3       0.45037717E+02     0.98448610E+00
               4       0.44009936E+02     0.96938729E+00
               5       0.42432185E+02     0.94029407E+00
               6       0.40322172E+02     0.88579387E+00
               7       0.37767065E+02     0.79186111E+00
               8       0.34827346E+02     0.77097781E+00
               9       0.31746766E+02     0.74548759E+00
              10       0.28786500E+02     0.73150945E+00
              11       0.25628201E+02     0.71065496E+00
              12       0.21598785E+02     0.67500249E+00
              13       0.16301647E+02     0.62939422E+00
              14       0.10122972E+02     0.55398575E+00
              15       0.46793551E+01     0.43520133E+00
              16       0.17213526E+01     0.27369134E+00
              17       0.84925735E+00     0.16384962E+00
              18       0.41375500E+00     0.90950504E-01
              19       0.11485474E+00     0.28116453E-01
              20       0.99309107E-02     0.26873685E-02
              21       0.84824234E-04     0.24550914E-04
              22       0.69699370E-08     0.20490840E-08
              23       0.48219249E-13     0.35527137E-14
================================================================================
Calculating core density ...
================================= Core Density =================================
               Core den box size:   21 x  21 x  21
================================================================================
 ... done
Up spin density kernel initialisation ...... done
Down spin density kernel initialisation ...... done

Writing density kernel to file "20/592nano.dkn" ... done

>>> Optimising kernel for current NGWFs:

--------------------------- Ensemble-DFT optimisation --------------------------
Running ScaLAPACK on  160 processor(s).

--------------------------------------------------------------------------------
  Iter                              Commutator    Free_energy(A=E-TS)     DeltaA
#    0                          0.001047181407   -2966.58042217037746  -2.97E+03

Step                       =       0.381966011250
Energy                     =   -2966.547980954958
Entropy (-TS)              =      -0.032441215691
Free energy (A=E-TS)       =   -2966.580422170377
Est. 0K Energy 0.5*(E+A)   =   -2966.564201562668
Residual Non-orthogonality =       0.000000000000
Residual N_electrons       =       0.000000000271

Spin          Integrated_Ne            Fermi_level     Delta_Fermi_level
   1      1052.000000000547        -0.248003237342             -2.48E-01
   2      1052.000000000547        -0.248003237342             -2.48E-01

                           Spin 1           |                 Spin 2           |
     Orb |    H-eigenvalues     Occupancies |    H-eigenvalues     Occupancies |
       1 |    -1.8945967104    1.0000000000 |    -1.8945967104    1.0000000000 | 
                          ------                             ------
    1048 |    -0.2545414521    0.8874150754 |    -0.2545414521    0.8874150754 | 
    1049 |    -0.2533488250    0.8439613718 |    -0.2533488250    0.8439613718 | 
    1050 |    -0.2524204393    0.8013641362 |    -0.2524204393    0.8013641362 | 
    1051 |    -0.2512524212    0.7361418461 |    -0.2512524212    0.7361418461 | 
    1052 |    -0.2508838987    0.7129266823 |    -0.2508838987    0.7129266823 | 
                 - Gap at zero temperature - |     - Gap at zero temperature -
    1053 |    -0.2470101192    0.4222357930 |    -0.2470101192    0.4222357930 | 
    1054 |    -0.2466771620    0.3968179422 |    -0.2466771620    0.3968179422 | 
    1055 |    -0.2439538424    0.2177719593 |    -0.2439538424    0.2177719593 | 
    1056 |    -0.2397206733    0.0681521423 |    -0.2397206733    0.0681521423 | 
    1057 |    -0.2322973368    0.0069673310 |    -0.2322973368    0.0069673310 | 
                          ------                             ------
    2144 |     0.5620136818    0.0000000000 |     0.5620136818    0.0000000000 | 

                       |  Abs_value |  Threshold | Converged
     Delta_Free_energy |   2.97E+03 |   1.00E-06 |        No
     Delta_Energy      |   2.97E+03 |   1.00E-04 |        No
     Delta_Entropy     |   3.24E-02 |   1.00E-04 |        No
     Commutator        |   1.05E-03 |   1.00E-05 |        No
     Delta_Fermi_level |   2.48E-01 |   1.00E-03 |        No

  Line search of the free energy minimum:
  Step_type        Step             Free_energy   Predicted_free_energy
.   Initial    0.000000    -2966.58042217037746
.    Trial1    0.381966    -2966.74807989209103
.    Trial2    0.618034    -2964.35587182327754
. Quadratic    0.203812    -2967.20354864686487    -2967.29102320290258

--------------------------------------------------------------------------------
  Iter                              Commutator    Free_energy(A=E-TS)     DeltaA
#    1                          0.000635047181   -2967.20354864686487  -6.23E-01

Step                       =       0.203812334488
Energy                     =   -2967.171609816859
Entropy (-TS)              =      -0.031938830132
Free energy (A=E-TS)       =   -2967.203548646865
Est. 0K Energy 0.5*(E+A)   =   -2967.187579231862
Residual Non-orthogonality =       0.000000000000
Residual N_electrons       =       0.000000000127

Spin          Integrated_Ne            Fermi_level     Delta_Fermi_level
   1      1052.000000000272        -0.232131709785              1.59E-02
   2      1052.000000000273        -0.232131709771              1.59E-02

                           Spin 1           |                 Spin 2           |
     Orb |    H-eigenvalues     Occupancies |    H-eigenvalues     Occupancies |
       1 |    -1.9159611882    1.0000000000 |    -1.9159611882    1.0000000000 | 
                          ------                             ------
    1048 |    -0.2394101040    0.9087390690 |    -0.2394101040    0.9087390690 | 
    1049 |    -0.2388083475    0.8917087804 |    -0.2388083475    0.8917087804 | 
    1050 |    -0.2374808278    0.8441081265 |    -0.2374808278    0.8441081265 | 
    1051 |    -0.2356314758    0.7512217157 |    -0.2356314758    0.7512217157 | 
    1052 |    -0.2339000853    0.6360843011 |    -0.2339000853    0.6360843011 | 
                 - Gap at zero temperature - |     - Gap at zero temperature -
    1053 |    -0.2313036161    0.4349971428 |    -0.2313036161    0.4349971428 | 
    1054 |    -0.2296599551    0.3142081620 |    -0.2296599551    0.3142081620 | 
    1055 |    -0.2273232469    0.1796983483 |    -0.2273232469    0.1796983483 | 
    1056 |    -0.2229221623    0.0517523827 |    -0.2229221623    0.0517523827 | 
    1057 |    -0.2211095458    0.0298714837 |    -0.2211095458    0.0298714837 | 
                          ------                             ------
    2144 |     0.5768729308    0.0000000000 |     0.5768729308    0.0000000000 | 

                       |  Abs_value |  Threshold | Converged
     Delta_Free_energy |   6.23E-01 |   1.00E-06 |        No
     Delta_Energy      |   6.24E-01 |   1.00E-04 |        No
     Delta_Entropy     |   5.02E-04 |   1.00E-04 |        No
     Commutator        |   6.35E-04 |   1.00E-05 |        No
     Delta_Fermi_level |   1.59E-02 |   1.00E-03 |        No

  Line search of the free energy minimum:
  Step_type        Step             Free_energy   Predicted_free_energy
.   Initial    0.000000    -2967.20354864686487
[...]
 C   260 -- C   420       -0.10     -0.00      5.40578
 C   201 -- C   303       -0.09      0.00      5.40582
 C   318 -- C   380       -0.08      0.00      5.40600
 C   330 -- C   382       -0.09      0.00      5.40610
 C    84 -- C   567       -0.09     -0.00      5.40610
 C    84 -- C   114       -0.09      0.00      5.40615
 C   445 -- C   467       -0.08      0.00      5.40642
 C    66 -- C   100       -0.09     -0.00      5.40643
 C   358 -- C   388       -0.09     -0.00      5.40659
 C    71 -- C   516       -0.10     -0.00      5.40669
 C    39 -- C   516       -0.08      0.00      5.40680
 C   328 -- C   384       -0.09      0.00      5.40702
 C    96 -- C   126       -0.09      0.00      5.40765
 C   182 -- C   188       -0.10     -0.00      5.40814
 C    62 -- C   368       -0.09      0.00      5.40838
 C    80 -- C   538       -0.08      0.00      5.40842
 C   339 -- C   497       -0.09     -0.00      5.40854
 C   113 -- C   481       -0.09      0.00      5.40869
 C    40 -- C    54       -0.09      0.00      5.40894
 C    64 -- C   366       -0.09     -0.00      5.40907
 C    74 -- C   488       -0.09     -0.00      5.40969
 C   293 -- C   421       -0.09     -0.00      5.40971
 C   409 -- C   485       -0.09      0.00      5.41024
 C    92 -- C   564       -0.09     -0.00      5.41056
 C   377 -- C   391       -0.09     -0.00      5.41066
 C   206 -- C   304       -0.09      0.00      5.41077
 C   181 -- Li  612       -0.08     -0.00      5.41135
 C    52 -- C   338       -0.09     -0.00      5.41157
 C    75 -- C   463       -0.10     -0.00      5.41159
 C   199 -- C   241       -0.08      0.00      5.41177
 C    40 -- C   102       -0.08      0.00      5.41193
 C   229 -- C   235       -0.09     -0.00      5.41219
 C   252 -- C   286       -0.08     -0.00      5.41240
 C   205 -- C   207       -0.09      0.00      5.41263
 C   260 -- C   294       -0.08      0.00      5.41309
 C   430 -- C   480       -0.09      0.00      5.41312
 C   285 -- C   287       -0.09      0.00      5.41352
 C   233 -- C   381       -0.09      0.00      5.41371
 C   441 -- C   463       -0.08      0.00      5.41375
 C   189 -- C   255       -0.08      0.00      5.41383
 C   293 -- C   295       -0.08      0.00      5.41385
 C   186 -- C   192       -0.09     -0.00      5.41404
 C   466 -- C   538       -0.09     -0.00      5.41421
 C    53 -- C   395       -0.09     -0.00      5.41432
 C   342 -- C   388       -0.08      0.00      5.41438
 C    77 -- C    91       -0.08      0.00      5.41482
 C   319 -- C   361       -0.09      0.00      5.41497
 C   202 -- C   208       -0.09      0.00      5.41547
 C    38 -- C   104       -0.08      0.00      5.41593
 C   186 -- C   212       -0.08      0.00      5.41669
 C    88 -- C   560       -0.08     -0.00      5.41709
 C   181 -- C   183       -0.10     -0.00      5.41709
 C   183 -- C   237       -0.08      0.00      5.41715
 C   231 -- C   241       -0.08      0.00      5.41720
 C    85 -- C    95       -0.08      0.00      5.41725
 C    87 -- C    93       -0.08      0.00      5.41764
 C   440 -- C   488       -0.08      0.00      5.41804
 C   205 -- C   263       -0.08      0.00      5.41822
 C   416 -- C   476       -0.09      0.00      5.41842
 C   408 -- C   416       -0.09      0.00      5.41950
 C   238 -- C   314       -0.09      0.00      5.42014
 C    81 -- C    87       -0.09     -0.00      5.42054
 C    65 -- C    91       -0.09     -0.00      5.42082
 C   220 -- C   238       -0.08      0.00      5.42152
 C    79 -- C    89       -0.08      0.00      5.42166
 H   587 -- Li  608       -0.02     -0.00      5.42361
 C   332 -- C   388       -0.08      0.00      5.42451
 C   103 -- C   525       -0.08      0.00      5.42660
 C    82 -- C   492       -0.09      0.00      5.42675
 H   152 -- Li  607       -0.03     -0.00      5.42825
 C    96 -- C   567       -0.08      0.00      5.42836
 C   333 -- C   365       -0.08      0.00      5.42993
 C   262 -- C   292       -0.08     -0.00      5.43007
 C   224 -- C   242       -0.08      0.00      5.43057
 C   285 -- C   407       -0.09      0.00      5.43099
 C   313 -- C   319       -0.08      0.00      5.43151
 C    56 -- C   342       -0.09     -0.00      5.43185
 C   233 -- C   239       -0.08     -0.00      5.43200
 C   481 -- C   489       -0.08      0.00      5.43202
 C   385 -- C   395       -0.08      0.00      5.43214
 C   477 -- C   485       -0.08     -0.00      5.43252
 C    76 -- C   564       -0.08      0.00      5.43274
 C   197 -- C   199       -0.09     -0.00      5.43353
 C   330 -- C   394       -0.08      0.00      5.43500
 C   254 -- C   284       -0.08     -0.00      5.43700
 C   185 -- C   235       -0.08      0.00      5.43701
 C   316 -- C   390       -0.08      0.00      5.43780
 C    67 -- C   511       -0.09     -0.00      5.43807
 C   230 -- C   318       -0.09     -0.00      5.44137
 C   252 -- C   406       -0.09     -0.00      5.44294
 C    83 -- C   467       -0.09     -0.00      5.44322
 C   202 -- C   216       -0.08      0.00      5.44334
 C   343 -- C   506       -0.08     -0.00      5.44475
 C   201 -- C   239       -0.08      0.00      5.44610
 H   146 -- Li  603       -0.03     -0.00      5.44723
 C   198 -- C   204       -0.08     -0.00      5.44809
 C   368 -- C   394       -0.08      0.00      5.44874
 C   470 -- C   547       -0.08     -0.00      5.45509
 C   253 -- C   413       -0.08      0.00      5.45730
 C   227 -- C   309       -0.08     -0.00      5.46256
 C    68 -- C   556       -0.08     -0.00      5.46549
 H   592 -- Li  606       -0.02     -0.00      5.48166
 H   581 -- Li  601       -0.02     -0.00      5.48227
 H   587 -- Li  604       -0.02     -0.00      5.50272
 H   312 -- Li  606       -0.02     -0.00      5.52097
 H   519 -- Li  601       -0.02     -0.00      5.52118
 H   590 -- Li  599       -0.02     -0.00      5.55594
 H   161 -- Li  612       -0.03     -0.00      5.56964
 H   544 -- Li  596       -0.02     -0.00      5.58234
 H   151 -- Li  595       -0.02      0.00      5.59534
 C   286 -- Li  612       -0.06     -0.00      5.59796
 H   401 -- Li  598       -0.02     -0.00      5.60773
 H   412 -- Li  598       -0.02     -0.00      5.62053
 H   165 -- Li  594       -0.02      0.00      5.63476
 H   509 -- Li  597       -0.02     -0.00      5.63665
 C   288 -- Li  612       -0.07      0.00      5.65131
 H   539 -- Li  599       -0.02     -0.00      5.65323
 H   173 -- Li  611       -0.01     -0.00      5.65768
=============================================================


============== Orbital energy and occupancy information for spin 1 =============

      Total number of orbitals:    2144
        Occupancy sum (kernel):    1052.000000084
   Occupancy sum (eigenvalues):    1052.000000084
                 HOMO-LUMO gap:       0.003563424 Eh
                 Mid-gap level:      -0.095215724 Eh

                        Orbital | Energy (Eh) | Occupancy
                            1    -1.845853687   1.0000000
                        .......   ...........   .........
                         1043    -0.123675015   0.9999081
                         1044    -0.110074375   0.9933130
                         1045    -0.107676835   0.9858114
                         1046    -0.105050522   0.9681119
                         1047    -0.103546246   0.9496861
                         1048    -0.100716282   0.8852165
                         1049    -0.100314514   0.8719873
                         1050    -0.099057390   0.8210812
                         1051    -0.097773788   0.7539366
                         1052    -0.096997436   0.7054552
                        ....... -- gap at 0K -- .........
                         1053    -0.093434012   0.4368412
                         1054    -0.091183662   0.2755268
                         1055    -0.089185615   0.1687045
                         1056    -0.087090221   0.0942853
                         1057    -0.084353803   0.0419319
                         1058    -0.082204924   0.0216755
                         1059    -0.079316859   0.0088286
                         1060    -0.077361361   0.0047828
                         1061    -0.076643982   0.0038043
                         1062    -0.076204823   0.0033216
                        .......   ...........   .........
                         2144     0.772903507   0.0000000

================================================================================

============== Orbital energy and occupancy information for spin 2 =============

      Total number of orbitals:    2144
        Occupancy sum (kernel):    1051.999999916
   Occupancy sum (eigenvalues):    1051.999999916
                 HOMO-LUMO gap:       0.002250350 Eh
                 Mid-gap level:      -0.092308837 Eh

                        Orbital | Energy (Eh) | Occupancy
                            1    -1.845853687   1.0000000
                        .......   ...........   .........
                         1044    -0.110074374   0.9933130
                         1045    -0.107676835   0.9858114
                         1046    -0.105050521   0.9681119
                         1047    -0.103546246   0.9496861
                         1048    -0.100716283   0.8852165
                         1049    -0.100314514   0.8719873
                         1050    -0.099057390   0.8210812
                         1051    -0.097773789   0.7539365
                         1052    -0.096997436   0.7054551
                         1053    -0.093434012   0.4368412
                        ....... -- gap at 0K -- .........
                         1054    -0.091183662   0.2755268
                         1055    -0.089185615   0.1687045
                         1056    -0.087090221   0.0942853
                         1057    -0.084353803   0.0419319
                         1058    -0.082204924   0.0216755
                         1059    -0.079316859   0.0088286
                         1060    -0.077361361   0.0047828
                         1061    -0.076643983   0.0038043
                         1062    -0.076204823   0.0033216
                         1063    -0.075183723   0.0024007
                        .......   ...........   .........
                         2144     0.772903507   0.0000000

================================================================================

===================== Writing canonical molecular orbitals =====================
    Spin 1
| Orbital  Energy (eV)  Norm     |
| HOMO     -2.63943454  1.000000 | Writing "20/592nano_HOMO_UP.cube" ... done
Writing "20/592nano_HOMO_UP.dx" ... done
| LUMO     -2.54246884  1.000000 | Writing "20/592nano_LUMO_UP.cube" ... done
Writing "20/592nano_LUMO_UP.dx" ... done
================================================================================

===================== Writing canonical molecular orbitals =====================
    Spin 2
| Orbital  Energy (eV)  Norm     |
| HOMO     -2.54246884  1.000000 | Writing "20/592nano_HOMO_DN.cube" ... done
Writing "20/592nano_HOMO_DN.dx" ... done
| LUMO     -2.48123369  1.000000 | Writing "20/592nano_LUMO_DN.cube" ... done
Writing "20/592nano_LUMO_DN.dx" ... done
================================================================================

================== Local Density of States (LDOS) calculation ==================
Writing "20/592nano_UP_LDOS.txt" ...  done
================================================================================

================== Local Density of States (LDOS) calculation ==================
Writing "20/592nano_DN_LDOS.txt" ...  done
================================================================================
 
=============== Density of States (DOS) calculation for UP spin ================
Writing "20/592nano_UP_DOS.txt" ...  done
================================================================================
 
============== Density of States (DOS) calculation for DOWN spin ===============
Writing "20/592nano_DN_DOS.txt" ...  done
================================================================================
 
Writing bands to file "20/592nano.val_bands" ... done
 
================ Projected Density of States (pDOS) calculation ================
 
Constructing AM resolved functions  ...... done
Writing NGWF plot files in formats: CUBE DX ...  done
 
Performing overlap integrals ...  done
 
Computing pDOS weights ...  done
 
All bands spilling parameter =   2.83 %
Occupancy-weighted spilling parameter =   0.92 %
 
 => Outputting data for OptaDOS <=
 
Writing pDOS weights to file "20/592nano.val_pdos_bin" ... done
 
Writing band gradients to file "20/592nano.val_dome_bin" ... done
 
Writing Castep output cell file to "20/592nano-out.cell" ... done
 
 => Computing Gaussian smeared pDOS for UP spin<= 
Writing "20/592nano_UP_PDOS.txt" ...  done
 
 => Computing Gaussian smeared pDOS for DOWN spin<= 
Writing "20/592nano_DN_PDOS.txt" ...  done
 
 => Computing Occupancy-weighted Gaussian smeared pDOS for UP spin<= 
Writing "20/592nano_occ_UP_PDOS.txt" ...  done
  => Band centres for UP spin channel: 
 S band centre of group 1:  -16.331515 eV
 P band centre of group 1:   -7.934224 eV
  Band centres for UP spin channel done. <= 
  => Integrated number of electrons in each AM band for UP spin channel: 
 S num electrons of group 1:  285.018044
 P num electrons of group 1:  757.273862
  Integrated number of electrons for UP spin channel done. <= 
 
 => Computing Occupancy-weighted Gaussian smeared pDOS for DOWN spin<= 
Writing "20/592nano_occ_DN_PDOS.txt" ...  done
  => Band centres for DOWN spin channel: 
 S band centre of group 1:  -16.331515 eV
 P band centre of group 1:   -7.934224 eV
  Band centres for DOWN spin channel done. <=
  => Integrated number of electrons in each AM band for DOWN spin channel: 
 S num electrons of group 1:  285.018044
 P num electrons of group 1:  757.273862
  Integrated number of electrons for DOWN spin channel done. <=
================================================================================

------------------------------ TIMING INFORMATION ------------------------------
AVERAGE TIME:   15443.117s on    160 node(s)                                    
TOTAL TIME:     15443.120s on    160 node(s)                                    
================= AVERAGE TIMINGS FROM ALL NODES (CUMULATIVE) ==================
|| TAG                                    #calls    cpu time   %total  Gflops ||
|| work_imbalance                       :     1        0.00s   0.000%  ------ ||
|| paw_tcore_density                    :     1        0.01s   0.000%  ------ ||
|| sparse_set_to_garbage                :   237        0.01s   0.000%  ------ ||
|| paw_sphere_density_on_grid           :     1        0.01s   0.000%  ------ ||
|| basis_extract_function_from_box      :   375        0.02s   0.000%  ------ ||
|| paw_dij_hartree                      :   900        0.03s   0.000%  ------ ||
|| ngwfs_initialise_from_radial         :     2        0.04s   0.000%  ------ ||
|| ewald_calculate_energy               :     1        0.18s   0.001%  ------ ||
|| density_init_guess_real              :     1        0.27s   0.002%  ------ ||
|| paw_tcore_hartree_on_grid            :     1        0.38s   0.002%  ------ ||
|| paw_dataset_init                     :     3        0.38s   0.002%  ------ ||
|| pseudo_make_structure_factor         :     1        0.53s   0.003%  ------ ||
|| dense_normal_eigensolve              :     1        1.11s   0.007%  ------ ||
|| sparse_init                          :     1        1.28s   0.008%  ------ ||
|| restart_kernel_write                 :    15        1.48s   0.010%  ------ ||
|| paw_species_calc_proj_prec_mat       :     1        2.18s   0.014%  ------ ||
|| sparse_embed_hotelling_invert_embed  :    27        5.13s   0.033%  ------ ||
|| sw_init                              :     1        7.55s   0.049%  ------ ||
|| fourier_apply_box_pair               :   940       10.54s   0.068%  2.358k ||
|| ngwf_gradient_coeffs                 :    14       12.70s   0.082%  ------ ||
|| augmentation_screen_dij              :   673       16.95s   0.110%  ------ ||
|| projectors_init_fftbox_recip         :    57       21.54s   0.139%  ------ ||
|| basis_copy_function_to_box           : 24535       31.24s   0.202%  ------ ||
|| integrals_kinetic                    :    27       36.89s   0.239%  ------ ||
|| hartree_on_grid                      :   668       38.91s   0.252%  ------ ||
|| paw_dij_xc                           :   900       40.44s   0.262%  ------ ||
|| projectors_func_ovlp_box             :    28       45.17s   0.293%  ------ ||
|| function_ops_brappd_ketppd           :    56       46.63s   0.302%  ------ ||
|| hamiltonian_energy_components        :     3       72.85s   0.472%  ------ ||
|| eigenstates_pdos                     :     1       96.97s   0.628%  ------ ||
|| sparse_trace                         : 16780      107.68s   0.697%  ------ ||
|| aug_nonlocal_mat                     :   886      119.57s   0.774%  ------ ||
|| restart_ngwfs_tightbox_output        :    13      127.49s   0.826%  ------ ||
|| augmentation_density_on_grid         :   668      130.31s   0.844%  ------ ||
|| fourier_apply_cell_forward           :  6004      135.37s   0.877% 154.374 ||
|| fourier_apply_cell_backward          :  6005      139.50s   0.903% 149.824 ||
|| basis_dot_function_with_box          : 5.283M     142.40s   0.922%  ------ ||
|| eigenstates_calculate                :     1      202.24s   1.310%  ------ ||
|| xc_energy_potential                  :   667      274.11s   1.775%  ------ ||
|| sparse_product                       : 14527      422.71s   2.737%  ------ ||
|| basis_add_function_to_box            : 15.93M     512.33s   3.318%  ------ ||
|| dense_eigensolve                     :  1274      554.48s   3.590%  ------ ||
|| integrals_locpot_mat_els_batch       :   451      574.13s   3.718%  ------ ||
|| projectors_gradient_batch            :    14      597.15s   3.867%  ------ ||
|| cell_grid_extract_box_real           : 14414      638.52s   4.135%  ------ ||
|| cell_grid_deposit_box_real           : 48185      729.41s   4.723%  ------ ||
|| projectors_grad_precond_batch        :    14      826.56s   5.352%  ------ ||
|| density_batch_row_sums               :   668     1272.06s   8.237%  ------ ||
|| density_fftbox_deposit_to_cell       : 21376     1391.80s   9.012%  ------ ||
|| properties_calculate                 :     1     1441.12s   9.332%  ------ ||
|| ngwf_gradient_build_batch            :    14     1588.72s  10.288%  ------ ||
|| potential_apply_to_ngwf_batch        :   451     1631.27s  10.563%  ------ ||
|| fourier_apply_box                    : 78448     1640.69s  10.624%  4.138k ||
|| ngwf_gradient_batch                  :    14     1723.15s  11.158%  ------ ||
|| edft_diag_ngwf_ham                   :  1272     1744.26s  11.295%  ------ ||
|| ngwf_gradient_lnv                    :    14     1745.26s  11.301%  ------ ||
|| density_fftbox_interpolate_multiply  : 21376     1842.12s  11.928%  ------ ||
|| integrals_locpot_dbl_grid            :   451     2227.78s  14.426%  ------ ||
|| edft_apply_smearing_operator         :   636     2745.46s  17.778%  ------ ||
|| density_batch_interp_deposit         :   668     3923.76s  25.408%  ------ ||
|| density_on_dbl_grid                  :   668     5305.49s  34.355%  ------ ||
|| hamiltonian_lhxc_calculate           :   663     5911.14s  38.277%  ------ ||
|| edft_calculate                       :    14    11140.74s  72.140%  ------ ||
|| ngwf_cg_optimise                     :     1    13980.08s  90.526%  ------ ||
|| total_time                           :     1    15443.12s 100.000%  ------ ||
================================================================================
Overhead of generating timer report: 
- 0 ms averaging over threads,
- 25 ms ensuring consistency across MPI ranks,
- 0 ms printing in order.

Job completed: 10-09-2020 22:01 (+0100)

