 +---------------------------------------------------------------+
 |                                                               |
 |        ####### #     # ####### ####### ####### ######         |
 |        #     # ##    # #          #    #       #     #        |
 |        #     # # #   # #          #    #       #     #        |
 |        #     # #  #  # #####      #    #####   ######         |
 |        #     # #   # # #          #    #       #              |
 |        #     # #    ## #          #    #       #              |
 |        ####### #     # #######    #    ####### #              |
 |                                                               |
 |        Linear-Scaling Ab Initio Total Energy Program          |
 |                                                               |
 |          Release for academic collaborators of ODG            |
 |                                             Version 5.3.2.12  |
 |                                                               |
 +---------------------------------------------------------------+
 |                                                               |
 |  Authors:                                                     |
 |  Jacek Dziedzic, Peter D. Haynes, Nicholas D. M. Hine,        |
 |  Arash. A. Mostofi, Mike C. Payne and Chris-Kriton Skylaris   |
 |                                                               |
 |  Contributors:                                                |
 |  J. Aarons, L. Andrinopoulos, P. W. Avraam, R. A. Bell,       |
 |  A. Bhandari, G. A. Bramley, R. J. Charlton, S. J. Clark,     |
 |  R. J. Clements, G. C. Constantinescu, F. Corsetti,           |
 |  N. Corsini, O. Dieguez, S. M. M. Dubois, K. K. B. Duff,      |
 |  J. M. Escartin, A. Greco, H. Helal, Q. O. Hill, L. P. Lee,   |
 |  J.-H. Li, E. B. Linscott, G. Moynihan, D. D. O`Regan,        |
 |  O. K. Okan, M. J. S. Phipps, C. J. Pickard,                  |
 |  J. C. A. Prentice, M. I. J. Probert, L. E. Ratcliff,         |
 |  M. Robinson, A. Ruiz Serrano, J. S. Spencer, E. W. Tait,     |
 |  G. Teobaldi, D. Turban, V. Vitale, K. A. Wilkinson,          |
 |  C. Weber, J. C. Womack, N. Yeung and T. J. Zuehlsdorff       |
 |                                                               |
 |                                   Copyright (c) 2004-2020     |
 |                                                               |
 |  Please cite:                                                 |
 |  "Introducing ONETEP: Linear-scaling density functional       |
 |   simulations on parallel computers".                         |
 |   C.-K. Skylaris, P. D. Haynes, A. A. Mostofi, M. C. Payne.   |
 |   J. Chem. Phys. 122 084119 (2005).                           |
 |                                                               |
 |          in all publications arising from your use of ONETEP. |
 |                                                               |
 +---------------------------------------------------------------+
 |                                                               |
 |   ONETEP is based on developments described in the following  |
 |   publications:                                               |
 |                                                               |
 |  "Nonorthogonal generalized Wannier function pseudopotential  |
 |   plane-wave method".                                         |
 |   C.-K. Skylaris, A. A. Mostofi, P. D. Haynes, O. Dieguez,    |
 |   M. C. Payne.                                                |
 |   Phys. Rev. B 66 035119 (2002).                              |
 |                                                               |
 |  "Preconditioned iterative minimization for linear-scaling    |
 |   electronic structure calculations".                         |
 |   A. A. Mostofi, P. D. Haynes, C.-K. Skylaris, M. C. Payne.   |
 |   J. Chem. Phys. 119(17), pp.8842-8848 (2003).                |
 |                                                               |
 |  "Total-energy calculations on a real space grid with         |
 |   localized functions and a plane-wave basis".                |
 |   A. A. Mostofi, C.-K. Skylaris, P. D. Haynes, M. C. Payne.   |
 |   Comput. Phys. Commun. 147, pp.788-802 (2002).               |
 |                                                               |
 |  "Accurate kinetic energy evaluation in electronic structure  |
 |   calculations with localized functions on real space grids"  |
 |   C.-K. Skylaris, A. A. Mostofi, P. D. Haynes, C. J. Pickard, |
 |   M. C. Payne.                                                |
 |   Comput. Phys. Commun. 140, pp.315-322 (2001).               |
 |                                                               |
 |  "Accurate ionic forces and geometry optimization in linear-  |
 |   scaling density-functional theory with local orbitals"      |
 |   N. D. M. Hine, M. Robinson, P. D. Haynes, C.-K. Skylaris,   |
 |   M. C. Payne, and A. A. Mostofi.                             |
 |   Phys. Rev. B 83 195102 (2011).                              |
 |                                                               |
 +---------------------------------------------------------------+

Job started: 09-09-2020 13:01 (+0100)
 
Reading parameters from file "592nano.dat" ...... done

If your calculation crashes here, before "Checking processes and threads..."
is displayed, then your stack size is insufficient.
If so, use "ulimit -s unlimited" at runtime.
You can disable this check with "check_stack_size F".

Checking processes and threads...
   Determining the default number of threads...
      No default threads set at compilation time: defaulting to 1.
      OpenMP library call suggests 4 threads.
      Hybrid MPI-OpenMP compilation detected.
      Number of MPI processes > 1.
      OMP_NUM_THREADS environment variable present and
      its value matches the one obtained from the OpenMP library call.
      Using this value as default.
      Default threads: 4
      Default applies to threads_max and threads_num_fftboxes.
      Settings in the input file override this default.
   ... done

   Running with 160 MPI processes.
   There are 10 MPI processes running on the same node as the root process.
   Each MPI process is using: 
               1 threads for simulation cell FFTs.
               1 threads for parallel FFT box operations.
               4 threads for loops over batched FFT box operations.
               4 threads in other parallel regions.
... done

Basic input checks...
Resetting ngwf_cg_rotate to TRUE for EDFT calculations
... done

Reading geometry and species blocks from file "592nano.dat" ...    
  Number of PPD points along a3 set to 1.  This is 
  the default value, it may have been provided also in the input file.
... done


--------------------------------------------------------------------------------
---------------------------------- INPUT FILE ----------------------------------
--------------------------------------------------------------------------------

task : geometryoptimization                                                     
do_properties : true                                                            
ddec_classical_hirshfeld T                                                      
dx_format T                                                                     
edft T                                                                          
edft_spin_fix 3                                                                 
output_detail VERBOSE                                                           
write_xyz T                                                                     
dispersion 4                                                                    
xc_functional PBE                                                               
cutoff_energy 830 eV                                                            
paw T                                                                           
geom_continuation T                                                             
geom_disp_tol 0.015 bohr                                                        
geom_energy_tol 1.5E-6 hartree                                                  
geom_force_tol 0.003 "ha/bohr"                                                  
EDFT_MAXIT 30                                                                   
pdos_max_l = 2                                                                  
dos_smear  0.1 eV                                                               
popn_calculate T                                                                
PDOS_PSEUDOATOMIC T                                                             
PDOS_REDUCE_SWS F                                                               
PDOS_CONSTRUCT_BASIS F                                                          
PDOS_LOWDIN T                                                                   
PDOS_ORTH_ATOM_BLOCKS F                                                         
PDOS_LCAO_OPTIMIZE F                                                            
pdos_optados_output T                                                           
homo_plot 0                                                                     
lumo_plot 0                                                                     
homo_dens_plot -1                                                               
lumo_dens_plot -1                                                               
%BLOCK SPECIES                                                                  
C C 6 4 9.0                                                                     
H H 1 1 9.0                                                                     
Li Li 3 5 9.0                                                                   
%ENDBLOCK SPECIES                                                               
%BLOCK SPECIES_POT                                                              
C "~/pp/paw/c_pbe_abinit.paw"                                                   
H "~/pp/paw/h_pbe_abinit.paw"                                                   
Li "~/pp/paw/li_pbe_abinit.paw"                                                 
%ENDBLOCK SPECIES_POT                                                           
%BLOCK SPECIES_ATOMIC_SET                                                       
C "SOLVE conf=2s2 2p2"                                                          
H "SOLVE conf=1s1"                                                              
Li "SOLVE conf=1s2 2s1 2p0"                                                     
%ENDBLOCK SPECIES_ATOMIC_SET                                                    
%BLOCK SPECIES_LDOS_GROUPS                                                      
C                                                                               
H                                                                               
Li                                                                              
%ENDBLOCK SPECIES_LDOS_GROUPS                                                   
%BLOCK LATTICE_CART                                                             
94.486315650000      0.000000000000       0.000000000000                        
0.000000000000       94.486315650000      0.000000000000                        
0.000000000000       0.000000000000       94.486315650000                       
%ENDBLOCK LATTICE_CART                                                          
%BLOCK POSITIONS_ABS                                                            
C 45.462178 50.695206 30.775054                                                 
C 45.465909 50.613610 36.839872                                                 
C 46.797898 53.031966 30.730679                                                 
C 48.155062 50.605201 36.833279                                                 
C 49.511675 48.382541 30.754210                                                 
C 49.493820 48.269563 36.808462                                                 
C 50.846778 50.719080 30.721668                                                 
C 52.184804 48.263545 36.768355                                                 
C 45.442360 55.353981 30.647142                                                 
C 45.477422 55.273757 36.851097                                                 
C 46.780119 57.691265 30.500181                                                 
C 48.166636 55.264755 36.857886                                                 
C 49.493059 53.042159 30.698294                                                 
C 49.503258 52.931403 36.840526                                                 
C 50.830237 55.375637 30.559796                                                 
C 52.196811 52.922230 36.825935                                                 
C 45.425188 50.458216 42.995333                                                 
C 45.375687 50.394713 49.044541                                                 
C 46.771745 52.786572 43.015194                                                 
C 48.068707 50.409278 49.082444                                                 
C 49.460843 48.130821 42.974112                                                 
C 49.423125 48.076612 49.109042                                                 
C 50.807449 50.458739 42.982394                                                 
C 52.116699 48.096318 49.249646                                                 
C 45.425851 55.117245 43.043161                                                 
C 45.356830 55.064808 49.118934                                                 
C 46.768750 57.446961 43.078570                                                 
C 48.047368 55.082098 49.153697                                                 
C 49.461619 52.785232 43.023419                                                 
C 49.399028 52.755003 49.145602                                                 
C 50.808226 55.116123 43.061416                                                 
C 52.092284 52.778857 49.268385                                                 
C 57.595386 48.414338 30.580813                                                 
C 57.560808 48.246706 36.651309                                                 
C 58.930126 50.741159 30.496695                                                 
C 60.280136 48.245268 36.580791                                                 
C 57.540061 48.149906 42.737155                                                 
C 57.482701 48.136251 49.714145                                                 
C 58.894138 50.470770 42.697332                                                 
C 60.210124 48.159049 49.928378                                                 
C 53.540866 50.727959 30.653451                                                 
C 53.532906 50.590088 36.773799                                                 
C 54.876518 53.057076 30.528681                                                 
C 56.227592 50.581946 36.720652                                                 
C 53.502787 50.463097 42.942732                                                 
C 53.444101 50.446370 49.358552                                                 
C 54.845798 52.787827 42.968227                                                 
C 56.127502 50.466424 49.607813                                                 
C 57.616498 43.769994 30.570230                                                 
C 57.552680 43.590060 36.602829                                                 
C 58.946633 46.090510 30.558304                                                 
C 60.266366 43.604922 36.540592                                                 
C 57.547862 43.496399 42.658652                                                 
C 57.516825 43.464922 49.828096                                                 
C 58.894216 45.821559 42.634026                                                 
C 60.220501 43.500206 50.117954                                                 
C 53.561436 46.076195 30.663507                                                 
C 53.522132 45.931168 36.716036                                                 
C 54.895873 48.404839 30.647185                                                 
C 56.217686 45.928005 36.656291                                                 
C 53.496683 45.808298 42.862320                                                 
C 53.470509 45.772543 49.365853                                                 
C 54.850162 48.139303 42.854191                                                 
C 56.161740 45.805050 49.610668                                                 
C 57.560782 57.689639 30.035609                                                 
C 57.593422 57.559009 37.003137                                                 
C 58.889837 60.042832 29.691376                                                 
C 60.325122 57.520016 36.989250                                                 
C 57.545452 57.449654 43.031571                                                 
C 57.455610 57.487504 49.611238                                                 
C 58.888181 59.786269 43.130516                                                 
C 60.160812 57.474084 49.742408                                                 
C 45.397954 64.670905 30.004194                                                 
C 45.506955 64.606036 36.918513                                                 
C 46.752545 67.011574 29.912079                                                 
C 48.185898 64.603864 36.965848                                                 
C 49.443826 62.343840 30.009356                                                 
C 49.538909 62.254328 36.998419                                                 
C 50.799646 64.708579 29.707433                                                 
C 52.235758 62.244560 37.083191                                                 
C 45.406144 64.442696 42.940988                                                 
C 45.297154 64.372990 49.804431                                                 
C 46.780329 66.781574 42.733646                                                 
C 47.985018 64.394840 49.832997                                                 
C 49.449077 62.108775 43.005159                                                 
C 49.363761 62.081672 49.588035                                                 
C 50.809821 64.465823 42.955683                                                 
C 52.052945 62.112613 49.683511                                                 
C 53.511434 60.024824 30.079633                                                 
C 53.562297 59.905931 37.028929                                                 
C 54.857863 62.386613 29.830242                                                 
C 56.263022 59.890985 37.107538                                                 
C 53.491274 59.757808 42.965798                                                 
C 53.410763 59.795857 49.521422                                                 
C 54.850776 62.111523 42.864580                                                 
C 56.116410 59.803988 49.633629                                                 
C 57.576974 53.057298 30.438640                                                 
C 57.577241 52.905052 36.755232                                                 
C 58.913931 55.381953 30.222229                                                 
C 60.303836 52.887985 36.698491                                                 
C 57.543810 52.795710 42.842549                                                 
C 57.450208 52.819695 49.742074                                                 
C 58.895875 55.141658 42.897253                                                 
C 60.172496 52.828787 50.065396                                                 
C 45.422934 60.006897 30.341284                                                 
C 45.489299 59.934084 36.890485                                                 
C 46.759290 62.342336 30.127349                                                 
C 48.182458 59.923490 36.910474                                                 
C 49.475750 57.698956 30.445492                                                 
C 49.519232 57.593074 36.894188                                                 
C 50.814016 60.025882 30.193797                                                 
C 52.211056 57.582502 36.927042                                                 
C 45.423555 59.776084 43.077688                                                 
C 45.330843 59.727714 49.339315                                                 
C 46.770543 62.109107 43.028552                                                 
C 48.027621 59.749634 49.364446                                                 
C 49.457432 57.445101 43.075778                                                 
C 49.385539 57.428551 49.248799                                                 
C 50.800268 59.775221 43.026561                                                 
C 52.074851 57.453172 49.322571                                                 
C 53.521745 55.378134 30.455897                                                 
C 53.546871 55.244394 36.872821                                                 
C 54.857122 57.709171 30.203811                                                 
C 56.241437 55.227523 36.865040                                                 
C 53.495924 55.114018 43.040307                                                 
C 53.424625 55.120127 49.343259                                                 
C 54.843253 57.447259 43.024568                                                 
C 56.115308 55.139774 49.545823                                                 
H 27.307288 41.283644 30.292988                                                 
H 28.250218 39.623963 36.455176                                                 
H 27.232550 41.158283 42.284619                                                 
H 28.215187 39.306313 50.047855                                                 
H 41.849051 30.292695 29.430436                                                 
C 42.876062 32.083936 29.530257                                                 
H 44.434722 30.198170 37.236153                                                 
H 41.727355 30.020927 42.990746                                                 
C 42.759114 31.816283 42.990784                                                 
H 44.429193 29.967615 49.343525                                                 
H 29.641941 37.263204 29.757730                                                 
C 30.656944 39.060908 29.880737                                                 
H 32.257404 37.285005 36.891270                                                 
H 33.702873 34.961698 29.323154                                                 
C 34.734276 36.745519 29.495494                                                 
H 29.541900 37.094755 42.435689                                                 
C 30.577118 38.883121 42.508352                                                 
H 32.286600 36.956337 50.186314                                                 
H 33.577865 34.708185 42.522792                                                 
C 34.621236 36.490278 42.628450                                                 
H 37.781257 32.627500 29.213076                                                 
C 38.800749 34.415011 29.412494                                                 
H 40.372386 32.545554 37.187766                                                 
H 37.675269 32.337860 42.330002                                                 
C 38.685185 34.127613 42.565632                                                 
H 40.411806 32.300921 50.094427                                                 
H 46.532984 30.303042 29.627354                                                 
H 46.410491 30.069133 43.275473                                                 
H 25.932381 48.341996 36.406255                                                 
C 28.001984 48.339342 36.470029                                                 
H 25.847127 48.055234 50.337460                                                 
C 27.908308 48.061736 50.182792                                                 
H 25.921999 43.681278 36.313827                                                 
H 27.287120 45.936004 30.500251                                                 
C 27.988499 43.661901 36.420649                                                 
H 25.860401 43.360937 50.150440                                                 
H 27.229196 45.840494 42.365096                                                 
C 27.925484 43.366526 50.096269                                                 
H 25.952930 57.671972 36.865941                                                 
H 27.216157 59.916425 29.807203                                                 
C 28.021344 57.673017 36.912752                                                 
H 25.829489 57.428522 49.895141                                                 
H 27.278852 59.851980 43.202452                                                 
C 27.893855 57.440230 49.780201                                                 
H 25.940143 53.013784 36.555936                                                 
H 27.231359 55.245718 30.202516                                                 
C 28.010100 53.005907 36.593090                                                 
H 25.846455 52.754931 50.248589                                                 
H 27.272960 55.222033 42.650888                                                 
C 27.908059 52.747232 50.097175                                                 
C 29.371533 41.281724 30.172119                                                 
C 29.271684 41.420780 36.494271                                                 
C 30.652377 43.664433 30.311675                                                 
C 31.973954 41.342314 36.652688                                                 
C 33.365952 39.008853 29.747001                                                 
C 33.309152 39.066570 36.833397                                                 
C 34.707604 41.366526 30.023159                                                 
C 35.986674 38.982841 37.025721                                                 
C 29.355120 45.948690 30.454039                                                 
C 29.284191 46.036297 36.485995                                                 
C 30.628419 48.295329 30.487054                                                 
C 31.998396 46.009138 36.585247                                                 
C 33.365659 43.664822 30.283300                                                 
C 33.326014 43.688233 36.665113                                                 
C 34.702888 45.995192 30.460837                                                 
C 36.023984 43.661637 36.764410                                                 
C 29.293939 41.142485 42.433348                                                 
C 29.241985 41.100187 50.035630                                                 
C 30.585250 43.520042 42.468375                                                 
C 31.935414 41.032926 49.977830                                                 
C 33.267531 38.794033 42.591514                                                 
C 33.316598 38.745564 50.042144                                                 
C 34.617475 41.155421 42.714834                                                 
C 35.976053 38.702421 50.052810                                                 
C 29.288327 45.842922 42.553900                                                 
C 29.203594 45.748629 50.085169                                                 
C 30.579566 48.176236 42.646179                                                 
C 31.928321 45.729150 49.884043                                                 
C 33.293470 43.491455 42.690094                                                 
C 33.275514 43.397611 49.838037                                                 
C 34.643397 45.830568 42.822279                                                 
C 35.983964 43.386214 49.651495                                                 
C 41.472299 39.053975 30.028753                                                 
C 41.402393 38.970924 36.902710                                                 
C 42.807443 41.369968 30.338580                                                 
C 44.091840 38.960235 36.899640                                                 
C 41.358880 38.798604 42.976043                                                 
C 41.408978 38.726417 49.614188                                                 
C 42.708170 41.132274 43.033940                                                 
C 44.081680 38.716256 49.427111                                                 
C 37.424055 41.362583 30.082154                                                 
C 37.359158 41.336053 36.880366                                                 
C 38.763110 43.687033 30.398860                                                 
C 40.061527 41.305963 36.863461                                                 
C 37.329450 41.140499 42.859181                                                 
C 37.337289 41.065281 49.747225                                                 
C 38.680652 43.475622 42.960071                                                 
C 40.031998 41.049232 49.532040                                                 
C 41.453043 34.380284 29.557688                                                 
C 41.403983 34.330592 37.030905                                                 
C 42.828921 36.726258 29.832011                                                 
C 44.066359 34.287121 37.171078                                                 
C 41.359938 34.102951 42.795892                                                 
C 41.433376 34.092772 49.863524                                                 
C 42.707794 36.452971 42.972661                                                 
C 44.091482 34.039908 49.616506                                                 
C 37.426622 36.682191 29.528126                                                 
C 37.356493 36.684533 36.972512                                                 
C 38.783330 39.046594 29.859186                                                 
C 40.023909 36.615394 36.949044                                                 
C 37.297876 36.416143 42.660902                                                 
C 37.368735 36.408876 49.916597                                                 
C 38.669360 38.795036 42.859215                                                 
C 40.065859 36.374205 49.933798                                                 
C 41.434107 48.343900 30.718541                                                 
C 41.426459 48.296565 36.814638                                                 
C 42.769522 50.682745 30.754126                                                 
C 44.117916 48.285602 36.831728                                                 
C 41.385002 48.131880 42.998502                                                 
C 41.344916 48.048064 49.115692                                                 
C 42.733605 50.459593 42.996261                                                 
C 44.038927 48.052138 49.056142                                                 
C 29.299716 55.255292 30.219699                                                 
C 29.303408 55.297234 36.749070                                                 
C 30.578077 57.555454 30.019703                                                 
C 32.019724 55.310176 36.802642                                                 
C 33.330482 52.958303 30.451466                                                 
C 33.360968 52.978384 36.706300                                                 
C 34.666911 55.279485 30.359846                                                 
C 36.058451 52.974054 36.759807                                                 
C 29.339363 55.203752 42.758085                                                 
C 29.194350 55.062818 49.886550                                                 
C 30.633694 57.493168 43.013654                                                 
C 31.909084 55.071401 49.649050                                                 
C 33.333048 52.835965 42.787534                                                 
C 33.259856 52.716445 49.604314                                                 
C 34.672827 55.152819 42.953941                                                 
C 35.950743 52.711264 49.342101                                                 
C 37.382063 50.656914 30.634036                                                 
C 37.396676 50.642223 36.752440                                                 
C 38.716932 52.990705 30.626284                                                 
C 40.088902 50.631467 36.800563                                                 
C 37.351577 50.474730 42.941831                                                 
C 37.297035 50.380145 49.277308                                                 
C 38.701637 52.801417 42.981267                                                 
C 39.990631 50.380408 49.132350                                                 
C 41.452492 43.689726 30.496346                                                 
C 41.415071 43.634277 36.824851                                                 
C 42.789079 46.023796 30.673312                                                 
C 44.106424 43.621389 36.825628                                                 
C 41.370063 43.467794 43.014600                                                 
C 41.364389 43.380282 49.287220                                                 
C 42.725254 45.799316 43.012573                                                 
C 44.061268 43.379649 49.170142                                                 
C 29.329311 50.606861 30.463362                                                 
C 29.291691 50.669823 36.543171                                                 
C 30.600409 52.932972 30.385396                                                 
C 32.012242 50.661443 36.613611                                                 
C 33.352253 48.304745 30.521617                                                 
C 33.348578 48.333379 36.630908                                                 
C 34.685612 50.641121 30.556840                                                 
C 36.046263 48.319701 36.709592                                                 
C 29.306930 50.516521 42.568334                                                 
C 29.193019 50.384610 50.081259                                                 
C 30.612944 52.849733 42.567735                                                 
C 31.924727 50.385265 49.806116                                                 
C 33.308052 48.159185 42.775137                                                 
C 33.275946 48.059078 49.690925                                                 
C 34.659856 50.485275 42.841159                                                 
C 35.958406 48.049677 49.435492                                                 
C 37.404260 46.004278 30.525951                                                 
C 37.383877 45.988908 36.752562                                                 
C 38.738378 48.333261 30.653622                                                 
C 40.075573 45.970865 36.801753                                                 
C 37.339295 45.815360 42.933928                                                 
C 37.315585 45.716773 49.417108                                                 
C 38.689358 48.138013 42.971812                                                 
C 40.006530 45.713055 49.249559                                                 
C 45.496054 32.091290 29.642011                                                 
C 45.480862 31.980916 37.174480                                                 
C 46.905411 34.390564 29.769862                                                 
C 48.082275 31.967654 37.173576                                                 
H 49.106753 30.171561 37.219080                                                 
H 50.608262 32.672253 29.495977                                                 
C 45.519999 36.730353 29.939115                                                 
C 45.452027 36.620910 37.001136                                                 
C 46.868889 39.069402 30.199410                                                 
C 48.139743 36.603179 36.979357                                                 
C 49.571095 34.447576 29.749867                                                 
C 49.509716 34.255578 37.157122                                                 
C 50.946790 36.753311 29.893202                                                 
C 52.186770 34.287418 37.196963                                                 
C 45.357754 31.842261 43.124274                                                 
C 45.476372 31.747081 49.491718                                                 
C 46.739189 34.136553 42.993447                                                 
C 48.078743 31.737080 49.575476                                                 
H 49.116597 29.950575 49.463332                                                 
H 50.418861 32.390315 42.723083                                                 
C 45.385504 36.468251 43.001821                                                 
C 45.442119 36.374650 49.504236                                                 
C 46.748249 38.806719 42.964606                                                 
C 48.122182 36.371750 49.564447                                                 
C 49.394063 34.191622 42.796240                                                 
C 49.475608 34.026247 49.802268                                                 
C 50.778930 36.462704 42.680057                                                 
C 52.154353 34.066578 50.022424                                                 
H 53.215384 32.499872 37.357235                                                 
H 53.190295 32.280270 50.139955                                                 
C 57.630986 39.152808 30.492550                                                 
C 57.563109 38.915214 36.602309                                                 
C 58.968894 41.421592 30.531774                                                 
C 60.268779 38.985648 36.515801                                                 
C 57.526456 38.852768 42.571377                                                 
C 57.548560 38.774213 50.082607                                                 
C 58.894067 41.141849 42.598621                                                 
C 60.238139 38.869231 50.207093                                                 
C 45.483164 46.035001 30.711707                                                 
C 45.456592 45.952535 36.823897                                                 
C 46.817535 48.369076 30.770517                                                 
C 48.147327 45.942994 36.807852                                                 
C 49.532750 43.725431 30.613137                                                 
C 49.488991 43.605930 36.783481                                                 
C 50.868030 46.061183 30.699957                                                 
C 52.177698 43.601768 36.728663                                                 
C 45.417070 45.799089 43.008361                                                 
C 45.396052 45.722341 49.075189                                                 
C 46.768513 48.126935 42.991329                                                 
C 48.091603 45.733971 49.088926                                                 
C 49.455051 43.470750 42.953523                                                 
C 49.451232 43.398629 49.178647                                                 
C 50.807087 45.800607 42.941545                                                 
C 52.137945 43.421319 49.327819                                                 
C 53.595719 41.425917 30.487309                                                 
C 53.527609 41.265832 36.705246                                                 
C 54.922008 43.750224 30.592808                                                 
C 56.220402 41.273711 36.633315                                                 
C 53.497492 41.153354 42.741822                                                 
C 53.490193 41.089878 49.571772                                                 
C 54.839736 43.477852 42.766777                                                 
C 56.196225 41.123970 49.826809                                                 
H 57.273227 34.858955 36.737618                                                 
H 58.675357 37.366858 30.493003                                                 
H 57.256515 34.694105 50.293090                                                 
H 58.578792 37.080817 42.397595                                                 
C 45.506573 41.379199 30.413097                                                 
C 45.447438 41.287915 36.843468                                                 
C 46.841273 43.710215 30.603870                                                 
C 48.143537 41.276278 36.818427                                                 
C 49.557498 39.089603 30.198219                                                 
C 49.495155 38.941999 36.861847                                                 
C 50.896470 41.405151 30.450017                                                 
C 52.189769 38.936298 36.814315                                                 
C 45.405044 41.140697 43.023939                                                 
C 45.420213 41.051951 49.234093                                                 
C 46.758922 43.464864 43.008429                                                 
C 48.117344 41.052996 49.236394                                                 
C 49.424969 38.817826 42.831947                                                 
C 49.468643 38.722943 49.451437                                                 
C 50.797991 41.140991 42.858638                                                 
C 52.155854 38.738411 49.647457                                                 
C 53.604035 36.805124 30.138848                                                 
C 53.568394 36.578658 36.936856                                                 
C 54.968781 39.088007 30.389415                                                 
C 56.227689 36.645567 36.741986                                                 
C 53.472435 36.496802 42.779205                                                 
C 53.529054 36.367810 49.965854                                                 
C 54.866063 38.791330 42.570059                                                 
C 56.203900 36.461826 50.095440                                                 
H 61.290483 37.186870 36.483132                                                 
H 62.696935 39.696629 30.489357                                                 
H 61.267414 37.080877 50.325236                                                 
H 62.607396 39.417001 42.548128                                                 
H 28.290772 61.692126 37.376923                                                 
H 28.164609 61.460249 49.445103                                                 
C 29.283309 59.932383 29.805989                                                 
C 29.312330 59.904032 37.189206                                                 
C 30.576106 62.191724 29.646182                                                 
C 32.028770 59.974344 37.263247                                                 
C 33.312631 57.601494 30.094835                                                 
C 33.364114 57.617952 36.994382                                                 
C 34.643528 59.930607 29.943435                                                 
C 36.067828 57.633556 36.935791                                                 
H 29.538686 63.974445 29.508534                                                 
H 32.351606 64.037395 37.433448                                                 
C 33.291470 62.292610 29.692561                                                 
C 33.385482 62.255746 37.245939                                                 
C 34.624591 64.573414 29.594881                                                 
C 36.056619 62.317497 37.140466                                                 
C 29.345620 59.866677 43.200838                                                 
C 29.184282 59.663476 49.536764                                                 
C 30.639984 62.097213 43.339728                                                 
C 31.888374 59.734486 49.421474                                                 
C 33.341774 57.497728 43.057115                                                 
C 33.239005 57.382139 49.433816                                                 
C 34.680367 59.806685 43.191092                                                 
C 35.928418 57.381512 49.298603                                                 
H 29.622689 63.894367 43.463952                                                 
H 32.187498 63.788313 49.303733                                                 
C 33.343445 62.166404 43.307899                                                 
C 33.224529 61.998669 49.330672                                                 
C 34.690365 64.430995 43.346338                                                 
C 35.892437 62.059559 49.339609                                                 
C 41.390893 57.662698 30.459034                                                 
C 41.445834 57.618055 36.874836                                                 
C 42.726726 59.990721 30.316705                                                 
C 44.137923 57.612099 36.865567                                                 
C 41.395575 57.456230 43.070595                                                 
C 41.309123 57.383978 49.190126                                                 
C 42.737702 59.783081 43.090228                                                 
C 43.998939 57.394812 49.195596                                                 
C 37.344220 59.955766 30.096669                                                 
C 37.408540 59.952727 37.015678                                                 
C 38.670258 62.290966 29.937691                                                 
C 40.103584 59.952194 36.963872                                                 
C 37.368223 59.802595 43.166991                                                 
C 37.258144 59.703288 49.285940                                                 
C 38.709392 62.126726 43.204027                                                 
C 39.949190 59.711916 49.283470                                                 
C 41.414147 53.005838 30.694845                                                 
C 41.437178 52.956471 36.821725                                                 
C 42.749003 55.339901 30.627636                                                 
C 44.128475 52.948227 36.839834                                                 
C 41.392447 52.794228 43.000688                                                 
C 41.326049 52.715555 49.091098                                                 
C 42.738583 55.121324 43.030591                                                 
C 44.021279 52.725552 49.066215                                                 
C 37.362030 55.305761 30.469714                                                 
C 37.408248 55.296578 36.830259                                                 
C 38.697391 57.644166 30.360168                                                 
C 40.097963 55.291748 36.834020                                                 
C 37.366600 55.138026 43.014866                                                 
C 37.284289 55.043629 49.239965                                                 
C 38.709568 57.463213 43.085621                                                 
C 39.971518 55.047078 49.147758                                                 
C 41.336726 67.002675 29.799172                                                 
C 41.502450 66.923025 37.038526                                                 
C 42.743039 69.309312 29.859376                                                 
C 44.149418 66.946084 36.898667                                                 
C 41.360654 66.797185 43.099444                                                 
C 41.252799 66.670554 49.830286                                                 
C 42.774966 69.099373 42.969521                                                 
C 43.886240 66.709741 50.008072                                                 
H 37.634801 68.736093 29.592741                                                 
H 40.483413 68.722607 37.113152                                                 
H 37.699387 68.562201 43.271977                                                 
H 40.211493 68.455503 49.920248                                                 
C 41.366944 62.310438 30.063797                                                 
C 41.465903 62.276484 37.029162                                                 
C 42.717885 64.661555 29.950665                                                 
C 44.148686 62.274693 36.936440                                                 
C 41.389806 62.119813 43.132095                                                 
C 41.280463 62.040207 49.443371                                                 
C 42.731654 64.451233 43.060102                                                 
C 43.959804 62.042984 49.515094                                                 
H 33.576242 66.348162 29.431988                                                 
H 33.658816 66.224356 43.417950                                                 
C 37.290041 64.651455 29.697026                                                 
C 37.433754 64.596551 37.187507                                                 
C 38.669966 66.948993 29.689072                                                 
C 40.106156 64.643548 37.208765                                                 
C 37.352615 64.484686 43.278503                                                 
C 37.246559 64.337136 49.438485                                                 
C 38.728476 66.766601 43.233504                                                 
C 39.894891 64.390966 49.564333                                                 
C 61.679459 41.496630 30.500018                                                 
C 61.554811 41.223634 36.494067                                                 
C 62.965871 43.733218 30.469471                                                 
H 63.621333 41.246023 36.450667                                                 
C 61.664654 46.111450 30.497331                                                 
C 61.553544 45.896892 36.521704                                                 
C 62.945837 48.411519 30.448819                                                 
H 63.620974 45.893239 36.465671                                                 
H 65.034012 43.754086 30.425971                                                 
C 61.589917 41.213197 42.567151                                                 
C 61.520426 41.130866 50.214190                                                 
C 62.907231 43.469521 42.542259                                                 
H 63.584170 41.151852 50.336972                                                 
C 61.623973 45.850169 42.533871                                                 
C 61.511941 45.831819 50.024328                                                 
C 62.924413 48.152221 42.511834                                                 
H 63.572063 45.840144 50.220247                                                 
H 64.973768 43.473837 42.513706                                                 
C 61.632298 55.370543 30.170617                                                 
C 61.600261 55.218308 36.797861                                                 
C 62.908265 57.745996 29.960489                                                 
H 63.667895 55.212941 36.775080                                                 
H 65.003117 53.086833 30.271781                                                 
C 61.617041 55.139082 42.800148                                                 
C 61.454842 55.169844 49.947701                                                 
C 62.898522 57.505617 42.992427                                                 
H 63.520161 55.179032 50.075716                                                 
H 64.989318 52.831673 42.583073                                                 
C 61.652052 50.745792 30.427658                                                 
C 61.573032 50.561144 36.587229                                                 
C 62.933303 53.078170 30.304608                                                 
H 65.015755 48.415666 30.403220                                                 
C 61.636783 50.477004 42.563962                                                 
C 61.479322 50.496281 50.053696                                                 
C 62.922014 52.824514 42.636037                                                 
H 64.992041 48.147332 42.437497                                                 
H 41.695754 71.092122 29.837846                                                 
H 44.523037 71.025253 36.718503                                                 
H 41.736365 70.888038 42.999305                                                 
H 44.246507 70.790318 50.412110                                                 
C 45.333448 69.308838 29.920035                                                 
C 45.566081 69.241707 36.794901                                                 
H 46.372616 71.096031 29.951327                                                 
C 48.155423 69.248697 36.843127                                                 
C 49.403530 66.986945 29.804001                                                 
C 49.565321 66.949471 36.998373                                                 
H 50.422141 68.785788 29.711145                                                 
C 52.229198 66.905026 37.109305                                                 
H 49.198585 71.033961 36.798919                                                 
C 45.360325 69.099731 42.760728                                                 
C 45.296738 69.017110 50.266075                                                 
H 46.406577 70.876676 42.608046                                                 
C 47.904865 69.036135 50.264251                                                 
C 49.430986 66.746948 42.870764                                                 
C 49.352433 66.748626 50.053460                                                 
H 50.461173 68.538333 42.778530                                                 
C 51.997764 66.751924 50.037781                                                 
H 48.936974 70.819214 50.423709                                                 
H 57.323176 66.322457 37.371647                                                 
H 57.114839 66.241567 50.098202                                                 
H 53.260687 68.696792 37.132007                                                 
H 52.997536 68.562443 50.112255                                                 
C 57.529098 62.325210 29.696800                                                 
C 57.611593 62.260901 37.246524                                                 
H 58.561766 64.106637 29.493259                                                 
C 60.325756 62.162817 37.264665                                                 
C 57.517114 62.054014 43.074253                                                 
C 57.463304 62.158171 49.833090                                                 
H 58.548635 63.850421 43.154351                                                 
C 60.158463 62.088969 49.677191                                                 
C 53.476902 64.663452 29.723638                                                 
C 53.613688 64.612050 37.191476                                                 
C 56.277218 64.541355 37.268669                                                 
C 53.469513 64.403888 42.928558                                                 
C 53.401630 64.485569 49.982819                                                 
C 56.088223 64.444367 50.074467                                                 
C 61.607453 59.977331 29.715191                                                 
C 61.616619 59.903291 37.140387                                                 
H 62.625034 61.769364 29.532562                                                 
H 63.682852 59.887931 37.131619                                                 
H 64.977231 57.748519 29.976448                                                 
H 61.362351 63.948586 37.365059                                                 
C 61.582231 59.727882 43.185276                                                 
C 61.450656 59.840011 49.653686                                                 
H 62.592017 61.526429 43.316996                                                 
H 63.518665 59.821296 49.611440                                                 
H 64.966780 57.505369 42.942279                                                 
H 61.187163 63.881400 49.585115                                                 
H 63.539959 50.506154 50.246727                                                 
H 36.354136 34.627170 50.227590                                                 
H 36.204456 66.123709 49.474217                                                 
H 27.247356 50.527979 42.380583                                                 
H 54.507526 66.198148 42.919678                                                 
H 63.640191 50.551724 36.538759                                                 
H 54.484967 34.711521 42.494614                                                 
H 36.312613 34.904866 37.110913                                                 
H 36.407379 66.385074 37.347100                                                 
H 54.500074 66.451759 29.537743                                                 
H 27.261074 50.593778 30.458546                                                 
H 54.656693 35.021961 30.028984                                                 
Li 58.952654 60.085016 33.633644                                                
Li 30.363333 43.466822 46.442534                                                
Li 43.950940 34.181339 33.220237                                                
Li 46.585194 67.037397 46.602172                                                
Li 60.365298 43.604754 46.126523                                                
Li 31.877410 60.180776 33.351309                                                
Li 51.118446 64.721699 33.589696                                                
Li 39.790020 64.938559 33.328380                                                
Li 60.534290 52.648501 46.202939                                                
Li 30.131948 52.609887 46.413205                                                
Li 35.631593 38.655883 46.181725                                                
Li 55.334394 38.480786 46.423512                                                
Li 35.954699 38.546491 33.190326                                                
Li 51.384600 35.194888 33.446339                                                
Li 39.289611 34.705082 46.417084                                                
Li 51.369016 34.829866 46.220823                                                
Li 55.521731 63.708358 46.339759                                                
Li 39.493680 66.239400 46.492560                                                
Li 28.995360 52.491600 33.494640                                                
%ENDBLOCK POSITIONS_ABS                                                         

--------------------------------------------------------------------------------
-------------------------------- END INPUT FILE --------------------------------
--------------------------------------------------------------------------------


 
<<<<<<<<<<<<<<<<<<<<<<<<<<<<<<<<< Full system >>>>>>>>>>>>>>>>>>>>>>>>>>>>>>>>>>
<<<<<<<<<<<<<<<<<<<<<<<<<<< PAW Dataset information >>>>>>>>>>>>>>>>>>>>>>>>>>>
File: ~/pp/paw/c_pbe_abinit.paw; rc = 1.25 bohr; shape type =  3; rshape = 1.25 bohr;
  Atomic number:  6;  ionic charge:  4.000000
    Partial Wave 1: l = 0
    Partial Wave 2: l = 0
    Partial Wave 3: l = 1
    Partial Wave 4: l = 1
  Core charge supplied for Nonlinear Core Corrections
File: ~/pp/paw/h_pbe_abinit.paw; rc = 0.90 bohr; shape type =  3; rshape = 0.90 bohr;
  Atomic number:  1;  ionic charge:  1.000000
    Partial Wave 1: l = 0
    Partial Wave 2: l = 0
File: ~/pp/paw/li_pbe_abinit.paw; rc = 1.42 bohr; shape type =  3; rshape = 1.42 bohr;
  Atomic number:  3;  ionic charge:  3.000000
    Partial Wave 1: l = 0
    Partial Wave 2: l = 0
    Partial Wave 3: l = 0
    Partial Wave 4: l = 1
    Partial Wave 5: l = 1
<<<<<<<<<<<<<<<<<<<<<<<<<<<<<<<<<<<<<<< >>>>>>>>>>>>>>>>>>>>>>>>>>>>>>>>>>>>>>>

-------------------------- Atom counting information ---------------------------
Symbol    Natoms    Nngwfs    Nprojs
  C        484      1936      3872
  H        108       108       216
  Li        19        95       171
.......   ......    ......    ......
Totals:    611      2139      4259
--------------------------------------------------------------------------------

=============================== PSINC grid sizes ===============================
                      Simulation cell:  189 x 189 x 189
                              FFT-box:  117 x 117 x 117
                                  PPD:    7 x   7 x   1
Grid space d1=  0.499927596032a0 (KE cutoff=  30.39413Eh = 827.06648eV)
Grid space d2=  0.499927596032a0 (KE cutoff=  30.39413Eh = 827.06648eV)
Grid space d3=  0.499927596032a0 (KE cutoff=  30.39413Eh = 827.06648eV)
================================================================================
  
WARNING in cell_grid_distribute:
Average of less than one 23-slab per node, so workload cannot be
equally balanced between nodes.

********************* Fourier parallelisation information **********************
       Coarse grid (whole simulation cell) dimensions:    189   189   189
          Real-space ('12') slabs/node (min max mean):      1     2     1
         Recip-space ('23') slabs/node (min max mean):      0     1     0
********************************************************************************

********************* Fourier parallelisation information **********************
       Double grid (whole simulation cell) dimensions:    378   378   378
          Real-space ('12') slabs/node (min max mean):      2     3     2
         Recip-space ('23') slabs/node (min max mean):      1     2     1
********************************************************************************

Atom SCF Calculation for C  : Z (AE atom) =   6 : Z (PS atom) =   4
Config String: 2s2 2p2
Orbitals (num,occ):  2     2.00 2.00
Orbitals   (num,l):  2        0    1
Real-space Grid (nr,dr,rmax): 1377    0.0065406977    9.0000000000
Spherical Bessel Basis (nsws,lmax,cutoff):   37    2  183.0099912382
Confining potential (l,width,scale):  0    3.0000000000  100.0000000000
Confining potential (l,width,scale):  1    3.0000000000  100.0000000000
  1         -5.4350126632   -1.2715272878    4.5135247139   -1.5681949477
  2         -5.3876836850   -1.3562195125    4.4235426751   -1.5380057521
  3         -5.3928844498   -1.3758175853    4.4021699684   -1.5318377811
  4         -5.3988962903   -1.3800385428    4.3975423583   -1.5307324410
  5         -5.4018428823   -1.3823489590    4.3950111904   -1.5301555648
  6         -5.4033571720   -1.3835805046    4.3936635548   -1.5298576834
  7         -5.4041480647   -1.3842324820    4.3929512000   -1.5297032953
  8         -5.4045641108   -1.3845769138    4.3925755232   -1.5296229456
  9         -5.4047838258   -1.3847587737    4.3923775340   -1.5295810042
 10         -5.4049001347   -1.3848548089    4.3922731819   -1.5295590658
 11         -5.4049618018   -1.3849055476    4.3922181562   -1.5295475724
 12         -5.4049945351   -1.3849323732    4.3921891206   -1.5295415432
 13         -5.4050119258   -1.3849465673    4.3921737867   -1.5295383767
 14         -5.4050211723   -1.3849540841    4.3921656816   -1.5295367119
 15         -5.4050260920   -1.3849580684    4.3921613935   -1.5295358358
 16         -5.4050287113   -1.3849601822    4.3921591228   -1.5295353742
 17         -5.4050301068   -1.3849613045    4.3921579192   -1.5295351307
 18         -5.4050308507   -1.3849619010    4.3921572806   -1.5295350022
 19         -5.4050312476   -1.3849622183    4.3921569415   -1.5295349343
 20         -5.4050314594   -1.3849623873    4.3921567612   -1.5295348984
 21         -5.4050315725   -1.3849624773    4.3921566653   -1.5295348794
 22         -5.4050316330   -1.3849625253    4.3921566143   -1.5295348693
Atom SCF converged after  22 iterations to a total energy of     -5.40503163

Atom SCF Calculation for H  : Z (AE atom) =   1 : Z (PS atom) =   1
Config String: 1s1
Orbitals (num,occ):  1     1.00
Orbitals   (num,l):  1        0
Real-space Grid (nr,dr,rmax): 1377    0.0065406977    9.0000000000
Spherical Bessel Basis (nsws,lmax,cutoff):   37    1  183.0099912382
Confining potential (l,width,scale):  0    3.0000000000  100.0000000000
  1         -0.3605254152   -0.2399954029    0.2820952946   -0.2424203210
  2         -0.4156854077   -0.2398249290    0.2871789324   -0.2464796203
  3         -0.4412552402   -0.2379720642    0.2899127187   -0.2499011370
  4         -0.4517265951   -0.2371980236    0.2908966173   -0.2514141636
  5         -0.4557775773   -0.2369735141    0.2911607883   -0.2519713623
  6         -0.4573363459   -0.2369240355    0.2912108681   -0.2521663171
  7         -0.4579443228   -0.2369187864    0.2912112833   -0.2522344454
  8         -0.4581858602   -0.2369215483    0.2912049187   -0.2522587615
  9         -0.4582834939   -0.2369242589    0.2912002081   -0.2522677042
 10         -0.4583235236   -0.2369258837    0.2911975892   -0.2522710965
 11         -0.4583401154   -0.2369267223    0.2911962825   -0.2522724192
 12         -0.4583470483   -0.2369271266    0.2911956643   -0.2522729467
 13         -0.4583499624   -0.2369273145    0.2911953803   -0.2522731607
 14         -0.4583511926   -0.2369274000    0.2911952521   -0.2522732486
 15         -0.4583517136   -0.2369274385    0.2911951948   -0.2522732850
 16         -0.4583519349   -0.2369274556    0.2911951693   -0.2522733002
 17         -0.4583520290   -0.2369274632    0.2911951581   -0.2522733066
Atom SCF converged after  17 iterations to a total energy of     -0.45835203

Atom SCF Calculation for Li : Z (AE atom) =   3 : Z (PS atom) =   3
Config String: 1s2 2s1 2p0
Orbitals (num,occ):  3     2.00 1.00 0.00
Orbitals   (num,l):  3        0    0    1
Real-space Grid (nr,dr,rmax): 1377    0.0065406977    9.0000000000
Spherical Bessel Basis (nsws,lmax,cutoff):   37    2  183.0099912382
Confining potential (l,width,scale):  0    3.0000000000  100.0000000000
Confining potential (l,width,scale):  1    3.0000000000  100.0000000000
  1         -6.0640888065   -4.6655401716    2.5388576516   -0.9989538799
  2         -6.9627542978   -4.0954079129    2.9808988108   -1.1965571426
  3         -7.2692687601   -3.8889996707    3.2029735703   -1.3193883705
  4         -7.3784440298   -3.8322099748    3.2868571989   -1.3711018151
  5         -7.4170278248   -3.8191968371    3.3144974220   -1.3911175539
  6         -7.4303549880   -3.8172386945    3.3228486489   -1.3986896266
  7         -7.4348052089   -3.8175483495    3.3251259310   -1.4015352495
  8         -7.4362242328   -3.8180607346    3.3256233205   -1.4026016384
  9         -7.4366459715   -3.8184145665    3.3256561549   -1.4029998726
 10         -7.4367560626   -3.8186169740    3.3256001574   -1.4031477379
 11         -7.4367765260   -3.8187239825    3.3255481763   -1.4032021548
 12         -7.4367751741   -3.8187782620    3.3255144587   -1.4032219192
 13         -7.4367707398   -3.8188051288    3.3254952336   -1.4032289600
 14         -7.4367680349   -3.8188156035    3.3254870176   -1.4032309087
 15         -7.4367661982   -3.8188217406    3.3254819951   -1.4032318132
 16         -7.4367650112   -3.8188253257    3.3254789583   -1.4032322224
 17         -7.4367642682   -3.8188274151    3.3254771375   -1.4032324006
 18         -7.4367638134   -3.8188286307    3.3254760529   -1.4032324736
 19         -7.4367635392   -3.8188293370    3.3254754103   -1.4032325004
 20         -7.4367633760   -3.8188297469    3.3254750310   -1.4032325080
 21         -7.4367632796   -3.8188299846    3.3254748079   -1.4032325082
Atom SCF converged after  21 iterations to a total energy of     -7.43676328

================================================================================
<<<<<<<<<<<<<<<< Resuming previous ONETEP Geometry Optimisation >>>>>>>>>>>>>>>>
================================================================================

 Geometry Optimisation: output file is "592nano.geom"
 
 Geometry Optimisation: write_hamiltonian parameter over-ridden to T
 Reading continuation file "592nano.continuation" ...done
 Geometry Optimisation: read_tightbox_ngwfs parameter over-ridden to TRUE
 Geometry Optimisation: read_hamiltonian parameter over-ridden to T
 
                           -------------------------------
                                     Cell Contents
                           -------------------------------
 
            xxxxxxxxxxxxxxxxxxxxxxxxxxxxxxxxxxxxxxxxxxxxxxxxxxxxxxxxxxxx
            x  Element    Atom      Absolute co-ordinates of atoms     x
            x            Number        x           y           z       x
            x----------------------------------------------------------x
            x    C         1       45.459629   50.688790   30.775438   x
            x    C         2       45.452997   50.600415   36.831329   x
            x    C         3       46.794918   53.027277   30.739570   x
            x    C         4       48.144626   50.592788   36.830902   x
            x    C         5       49.512670   48.378169   30.739125   x
            x    C         6       49.486466   48.260010   36.806443   x
            x    C         7       50.846279   50.715151   30.718858   x
            x    C         8       52.179482   48.253340   36.768282   x
            x    C         9       45.438844   55.351838   30.659466   x
            x    C        10       45.466117   55.259423   36.839927   x
            x    C        11       46.778451   57.689079   30.507388   x
            x    C        12       48.156799   55.249524   36.844089   x
            x    C        13       49.490391   53.037661   30.703117   x
            x    C        14       49.496002   52.917094   36.833651   x
            x    C        15       50.828750   55.371446   30.558729   x
            x    C        16       52.190462   52.907649   36.812815   x
            x    C        17       45.408001   50.467662   43.005097   x
            x    C        18       45.383131   50.408864   49.032621   x
            x    C        19       46.755181   52.801383   43.020053   x
            x    C        20       48.079128   50.423045   49.065043   x
            x    C        21       49.442197   48.135987   42.976099   x
            x    C        22       49.433944   48.091269   49.111810   x
            x    C        23       50.789782   50.466690   42.985115   x
            x    C        24       52.128184   48.103858   49.255430   x
            x    C        25       45.413100   55.135516   43.040977   x
            x    C        26       45.366352   55.078728   49.119318   x
            x    C        27       46.760862   57.472421   43.055809   x
            x    C        28       48.059483   55.094464   49.147586   x
            x    C        29       49.448340   52.797915   43.015300   x
            x    C        30       49.413580   52.768315   49.127780   x
            x    C        31       50.798415   55.130804   43.023917   x
            x    C        32       52.106232   52.782979   49.265705   x
            x    C        33       57.599648   48.412851   30.576745   x
            x    C        34       57.561006   48.233436   36.643553   x
            x    C        35       58.933264   50.738916   30.489594   x
            x    C        36       60.281126   48.230349   36.569122   x
            x    C        37       57.522112   48.142816   42.747837   x
            x    C        38       57.491001   48.142304   49.723725   x
            x    C        39       58.877510   50.464113   42.701276   x
            x    C        40       60.222654   48.163434   49.936903   x
            x    C        41       53.542135   50.724893   30.651186   x
            x    C        42       53.529300   50.576769   36.768423   x
            x    C        43       54.878461   53.053720   30.526613   x
            x    C        44       56.225789   50.566853   36.710975   x
            x    C        45       53.486052   50.465691   42.938594   x
            x    C        46       53.454888   50.450560   49.352476   x
            x    C        47       54.831421   52.792811   42.938989   x
            x    C        48       56.132294   50.477384   49.616209   x
            x    C        49       57.626935   43.770020   30.532523   x
            x    C        50       57.555519   43.579375   36.596999   x
            x    C        51       58.953296   46.088901   30.546863   x
            x    C        52       60.269663   43.591705   36.523543   x
            x    C        53       57.531871   43.483567   42.692528   x
            x    C        54       57.527836   43.471290   49.875692   x
            x    C        55       58.875844   45.810471   42.651814   x
            x    C        56       60.232638   43.513347   50.152620   x
            x    C        57       53.567001   46.073172   30.632903   x
            x    C        58       53.521115   45.924033   36.714275   x
            x    C        59       54.900011   48.403068   30.639575   x
            x    C        60       56.217546   45.915950   36.650732   x
            x    C        61       53.479139   45.804886   42.871701   x
            x    C        62       53.479510   45.779988   49.396557   x
            x    C        63       54.831533   48.137116   42.864719   x
            x    C        64       56.170162   45.808003   49.638777   x
            x    C        65       57.561319   57.682569   30.006383   x
            x    C        66       57.594773   57.541194   36.949294   x
            x    C        67       58.889863   60.036852   29.654506   x
            x    C        68       60.327740   57.501327   36.955376   x
            x    C        69       57.542301   57.454813   42.962968   x
            x    C        70       57.471628   57.481125   49.720243   x
            x    C        71       58.888249   59.798741   43.014253   x
            x    C        72       60.174705   57.480519   49.811020   x
            x    C        73       45.409282   64.670846   29.978594   x
            x    C        74       45.511616   64.591247   36.881487   x
            x    C        75       46.766936   67.008762   29.867276   x
            x    C        76       48.190288   64.587892   36.925541   x
            x    C        77       49.447129   62.337676   29.979062   x
            x    C        78       49.540526   62.237207   36.946685   x
            x    C        79       50.805395   64.699229   29.663163   x
            x    C        80       52.238025   62.227227   37.007800   x
            x    C        81       45.406983   64.477976   42.914566   x
            x    C        82       45.325386   64.392747   49.961315   x
            x    C        83       46.791601   66.814623   42.738622   x
            x    C        84       48.012726   64.411059   49.975583   x
            x    C        85       49.454118   62.134153   42.982515   x
            x    C        86       49.372789   62.088274   49.731906   x
            x    C        87       50.829612   64.493125   42.911313   x
            x    C        88       52.058073   62.106105   49.882923   x
            x    C        89       53.511190   60.017270   30.054357   x
            x    C        90       53.563310   59.888414   36.955549   x
            x    C        91       54.859439   62.378808   29.799727   x
            x    C        92       56.264938   59.874359   37.026195   x
            x    C        93       53.500592   59.779452   42.930479   x
            x    C        94       53.416729   59.785019   49.694830   x
            x    C        95       54.867362   62.141632   42.770655   x
            x    C        96       56.129923   59.791851   49.814891   x
            x    C        97       57.578761   53.053712   30.430409   x
            x    C        98       57.576833   52.888458   36.736013   x
            x    C        99       58.915640   55.377695   30.198535   x
            x    C       100       60.304162   52.870332   36.686540   x
            x    C       101       57.531441   52.794479   42.822971   x
            x    C       102       57.466258   52.820778   49.758414   x
            x    C       103       58.885377   55.141954   42.859091   x
            x    C       104       60.187470   52.830651   50.066738   x
            x    C       105       45.424670   60.006390   30.344912   x
            x    C       106       45.484554   59.918056   36.861339   x
            x    C       107       46.764101   62.340528   30.111259   x
            x    C       108       48.178426   59.906807   36.874686   x
            x    C       109       49.474430   57.694199   30.441443   x
            x    C       110       49.513758   57.576023   36.863389   x
            x    C       111       50.814773   60.019002   30.173644   x
            x    C       112       52.207557   57.565497   36.880684   x
            x    C       113       45.417867   59.804530   43.059028   x
            x    C       114       45.340964   59.742714   49.429031   x
            x    C       115       46.769759   62.138022   43.011310   x
            x    C       116       48.040618   59.761921   49.447012   x
            x    C       117       49.452911   57.467088   43.038811   x
            x    C       118       49.395886   57.440151   49.293141   x
            x    C       119       50.800580   59.799988   42.997287   x
[...]
 C   206 -- C   304       -0.09      0.00      5.41077
 C    52 -- C   338       -0.09     -0.00      5.41157
 C    75 -- C   463       -0.10     -0.00      5.41159
 C   199 -- C   241       -0.08     -0.00      5.41177
 C    40 -- C   102       -0.08      0.00      5.41193
 C   229 -- C   235       -0.09      0.00      5.41219
 C   252 -- C   286       -0.08      0.00      5.41240
 C   205 -- C   207       -0.09      0.00      5.41263
 C   260 -- C   294       -0.08     -0.00      5.41309
 C   430 -- C   480       -0.09      0.00      5.41312
 C   285 -- C   287       -0.09      0.00      5.41352
 C   233 -- C   381       -0.09      0.00      5.41371
 C   441 -- C   463       -0.08      0.00      5.41375
 C   189 -- C   255       -0.09      0.00      5.41383
 C   293 -- C   295       -0.09      0.00      5.41385
 C   186 -- C   192       -0.09     -0.00      5.41404
 C   466 -- C   538       -0.10     -0.00      5.41421
 C    53 -- C   395       -0.09      0.00      5.41432
 C   342 -- C   388       -0.08      0.00      5.41438
 C    77 -- C    91       -0.08      0.00      5.41482
 C   319 -- C   361       -0.09      0.00      5.41497
 C   202 -- C   208       -0.09      0.00      5.41547
 C    38 -- C   104       -0.08      0.00      5.41593
 C   186 -- C   212       -0.09      0.00      5.41669
 C    88 -- C   560       -0.08     -0.00      5.41709
 C   181 -- C   183       -0.09     -0.00      5.41710
 C   183 -- C   237       -0.08      0.00      5.41715
 C   231 -- C   241       -0.08     -0.00      5.41720
 C    85 -- C    95       -0.08      0.00      5.41726
 C    87 -- C    93       -0.09      0.00      5.41764
 C   440 -- C   488       -0.09      0.00      5.41804
 C   205 -- C   263       -0.08      0.00      5.41822
 C   416 -- C   476       -0.09      0.00      5.41842
 C   408 -- C   416       -0.09      0.00      5.41950
 C   238 -- C   314       -0.09      0.00      5.42014
 C    81 -- C    87       -0.09     -0.00      5.42054
 C    65 -- C    91       -0.09     -0.00      5.42082
 C   220 -- C   238       -0.09      0.00      5.42152
 C    79 -- C    89       -0.08      0.00      5.42166
 H   587 -- Li  608       -0.03      0.00      5.42361
 C   332 -- C   388       -0.08     -0.00      5.42451
 C   103 -- C   525       -0.08     -0.00      5.42660
 C    82 -- C   492       -0.09      0.00      5.42675
 H   152 -- Li  607       -0.03      0.00      5.42825
 C    96 -- C   567       -0.08      0.00      5.42836
 C   333 -- C   365       -0.08      0.00      5.42993
 C   262 -- C   292       -0.08     -0.00      5.43007
 C   224 -- C   242       -0.08      0.00      5.43057
 C   285 -- C   407       -0.09      0.00      5.43099
 C   313 -- C   319       -0.08      0.00      5.43151
 C    56 -- C   342       -0.09     -0.00      5.43185
 C   233 -- C   239       -0.08     -0.00      5.43200
 C   481 -- C   489       -0.08      0.00      5.43202
 C   385 -- C   395       -0.08      0.00      5.43214
 C   477 -- C   485       -0.08      0.00      5.43251
 C    76 -- C   564       -0.08      0.00      5.43274
 C   197 -- C   199       -0.09     -0.00      5.43353
 C   330 -- C   394       -0.08      0.00      5.43500
 C   254 -- C   284       -0.08      0.00      5.43700
 C   185 -- C   235       -0.08     -0.00      5.43701
 C   316 -- C   390       -0.08      0.00      5.43780
 C    67 -- C   511       -0.09     -0.00      5.43807
 C   230 -- C   318       -0.09      0.00      5.44137
 C   252 -- C   406       -0.09     -0.00      5.44294
 C    83 -- C   467       -0.09     -0.00      5.44322
 C   202 -- C   216       -0.08      0.00      5.44334
 C   343 -- C   506       -0.08     -0.00      5.44475
 C   201 -- C   239       -0.08     -0.00      5.44610
 H   146 -- Li  603       -0.03      0.00      5.44723
 C   198 -- C   204       -0.08     -0.00      5.44809
 C   368 -- C   394       -0.08     -0.00      5.44874
 C   470 -- C   547       -0.08     -0.00      5.45509
 C   253 -- C   413       -0.08     -0.00      5.45730
 C   227 -- C   309       -0.08     -0.00      5.46256
 C    68 -- C   556       -0.08     -0.00      5.46549
 H   592 -- Li  606       -0.03      0.00      5.48166
 H   581 -- Li  601       -0.02      0.00      5.48227
 H   587 -- Li  604       -0.01      0.00      5.50272
 H   312 -- Li  606       -0.03      0.00      5.52097
 H   519 -- Li  601       -0.02      0.00      5.52118
 H   590 -- Li  599       -0.02      0.00      5.55594
 H   544 -- Li  596       -0.02     -0.00      5.58234
 H   151 -- Li  595       -0.02      0.00      5.59534
 H   401 -- Li  598       -0.02     -0.00      5.60773
 H   412 -- Li  598       -0.02      0.00      5.62054
 H   165 -- Li  594       -0.02      0.00      5.63476
 H   509 -- Li  597       -0.02      0.00      5.63665
 H   539 -- Li  599       -0.02      0.00      5.65323
 H   173 -- Li  611       -0.02      0.00      5.65768
=============================================================


============== Orbital energy and occupancy information for spin 1 =============

      Total number of orbitals:    2139
        Occupancy sum (kernel):    1050.500253605
   Occupancy sum (eigenvalues):    1050.500253605
                 HOMO-LUMO gap:       0.001355570 Eh
                 Mid-gap level:      -0.095200958 Eh

                        Orbital | Energy (Eh) | Occupancy
                            1    -1.846037741   1.0000000
                        .......   ...........   .........
                         1042    -0.123292980   0.9998474
                         1043    -0.110654788   0.9918106
                         1044    -0.107442572   0.9777351
                         1045    -0.105324371   0.9574460
                         1046    -0.104073623   0.9381099
                         1047    -0.101361291   0.8655239
                         1048    -0.100274520   0.8203526
                         1049    -0.099200403   0.7648485
                         1050    -0.097745687   0.6726533
                         1051    -0.095878743   0.5326530
                        ....... -- gap at 0K -- .........
                         1052    -0.094523173   0.4261682
                         1053    -0.092112907   0.2576080
                         1054    -0.089632240   0.1368219
                         1055    -0.087784399   0.0812719
                         1056    -0.085109767   0.0366158
                         1057    -0.082444330   0.0161185
                         1058    -0.080284208   0.0082137
                         1059    -0.078111813   0.0041535
                         1060    -0.077796001   0.0037610
                         1061    -0.077518446   0.0034451
                        .......   ...........   .........
                         2139     0.769892114   0.0000000

================================================================================

============== Orbital energy and occupancy information for spin 2 =============

      Total number of orbitals:    2139
        Occupancy sum (kernel):    1050.499746394
   Occupancy sum (eigenvalues):    1050.499746394
                 HOMO-LUMO gap:       0.001866827 Eh
                 Mid-gap level:      -0.096811553 Eh

                        Orbital | Energy (Eh) | Occupancy
                            1    -1.846037740   1.0000000
                        .......   ...........   .........
                         1041    -0.131980117   0.9999902
                         1042    -0.123292551   0.9998474
                         1043    -0.110654563   0.9918095
                         1044    -0.107442401   0.9777328
                         1045    -0.105324082   0.9574391
                         1046    -0.104073433   0.9381033
                         1047    -0.101361057   0.8655075
                         1048    -0.100273787   0.8202911
                         1049    -0.099199459   0.7647532
                         1050    -0.097744967   0.6725631
                        ....... -- gap at 0K -- .........
                         1051    -0.095878140   0.5325666
                         1052    -0.094522886   0.4261263
                         1053    -0.092112534   0.2575666
                         1054    -0.089631735   0.1367873
                         1055    -0.087784027   0.0812559
                         1056    -0.085109661   0.0366135
                         1057    -0.082444180   0.0161171
                         1058    -0.080283987   0.0082126
                         1059    -0.078111638   0.0041531
                         1060    -0.077795777   0.0037605
                        .......   ...........   .........
                         2139     0.769892117   0.0000000

================================================================================

===================== Writing canonical molecular orbitals =====================
    Spin 1
| Orbital  Energy (eV)  Norm     |
| HOMO     -2.60899334  1.000000 | Writing "592nano_HOMO_UP.cube" ... done
Writing "592nano_HOMO_UP.dx" ... done
| LUMO     -2.57210641  1.000000 | Writing "592nano_LUMO_UP.cube" ... done
Writing "592nano_LUMO_UP.dx" ... done
================================================================================

===================== Writing canonical molecular orbitals =====================
    Spin 2
| Orbital  Energy (eV)  Norm     |
| HOMO     -2.65977588  1.000000 | Writing "592nano_HOMO_DN.cube" ... done
Writing "592nano_HOMO_DN.dx" ... done
| LUMO     -2.60897693  1.000000 | Writing "592nano_LUMO_DN.cube" ... done
Writing "592nano_LUMO_DN.dx" ... done
================================================================================

================== Local Density of States (LDOS) calculation ==================
Writing "592nano_UP_LDOS.txt" ...  done
================================================================================

================== Local Density of States (LDOS) calculation ==================
Writing "592nano_DN_LDOS.txt" ...  done
================================================================================
 
=============== Density of States (DOS) calculation for UP spin ================
Writing "592nano_UP_DOS.txt" ...  done
================================================================================
 
============== Density of States (DOS) calculation for DOWN spin ===============
Writing "592nano_DN_DOS.txt" ...  done
================================================================================
 
Writing bands to file "592nano.val_bands" ... done
 
================ Projected Density of States (pDOS) calculation ================
 
Constructing AM resolved functions  ...... done
Writing NGWF plot files in formats: CUBE DX ...  done
 
Performing overlap integrals ...  done
 
Computing pDOS weights ...  done
 
All bands spilling parameter =   3.69 %
Occupancy-weighted spilling parameter =   0.92 %
 
 => Outputting data for OptaDOS <=
 
Writing pDOS weights to file "592nano.val_pdos_bin" ... done
 
Writing band gradients to file "592nano.val_dome_bin" ... done
 
Writing Castep output cell file to "592nano-out.cell" ... done
 
 => Computing Gaussian smeared pDOS for UP spin<= 
Writing "592nano_UP_PDOS.txt" ...  done
 
 => Computing Gaussian smeared pDOS for DOWN spin<= 
Writing "592nano_DN_PDOS.txt" ...  done
 
 => Computing Occupancy-weighted Gaussian smeared pDOS for UP spin<= 
Writing "592nano_occ_UP_PDOS.txt" ...  done
  => Band centres for UP spin channel: 
 S band centre of group 1:  -16.179750 eV
 P band centre of group 1:   -7.886878 eV
  Band centres for UP spin channel done. <= 
  => Integrated number of electrons in each AM band for UP spin channel: 
 S num electrons of group 1:  284.079385
 P num electrons of group 1:  756.706831
  Integrated number of electrons for UP spin channel done. <= 
 
 => Computing Occupancy-weighted Gaussian smeared pDOS for DOWN spin<= 
Writing "592nano_occ_DN_PDOS.txt" ...  done
  => Band centres for DOWN spin channel: 
 S band centre of group 1:  -16.179748 eV
 P band centre of group 1:   -7.886882 eV
  Band centres for DOWN spin channel done. <=
  => Integrated number of electrons in each AM band for DOWN spin channel: 
 S num electrons of group 1:  284.079389
 P num electrons of group 1:  756.706326
  Integrated number of electrons for DOWN spin channel done. <=
================================================================================

================================= Core Density =================================
               Core den box size:   21 x  21 x  21
================================================================================
======================= Empirical dispersion information =======================
Model : Grimme D2
================================================================================

------------------------------ TIMING INFORMATION ------------------------------
AVERAGE TIME:   12386.365s on    160 node(s)                                    
TOTAL TIME:     12386.368s on    160 node(s)                                    
================= AVERAGE TIMINGS FROM ALL NODES (CUMULATIVE) ==================
|| TAG                                    #calls    cpu time   %total  Gflops ||
|| linalg_invert_sym_matrix             :     9        0.00s   0.000%  ------ || (1 nodes only)
|| work_imbalance                       :     1        0.00s   0.000%  ------ ||
|| sparse_set_to_garbage                :   171        0.01s   0.000%  ------ ||
|| paw_sphere_density_on_grid           :     1        0.01s   0.000%  ------ ||
|| ewald_calculate_forces_realspace     :     6        0.01s   0.000%  ------ ||
|| ngwfs_initialise_from_radial         :     1        0.02s   0.000%  ------ ||
|| paw_dij_hartree                      :   668        0.02s   0.000%  ------ ||
|| basis_extract_function_from_box      :   454        0.03s   0.000%  ------ ||
|| paw_tcore_density                    :     6        0.04s   0.000%  ------ ||
|| paw_dataset_init                     :     3        0.44s   0.004%  ------ ||
|| augmentation_density_forces          :     6        0.44s   0.004%  ------ ||
|| paw_tcore_hartree_on_grid            :     6        0.54s   0.004%  ------ ||
|| ewald_calculate_energy               :     6        0.71s   0.006%  ------ ||
|| dense_normal_eigensolve              :     1        1.09s   0.009%  ------ ||
|| restart_hamiltonian_read             :     6        1.15s   0.009%  ------ ||
|| restart_hamiltonian_write            :    20        1.23s   0.010%  ------ ||
|| density_init_guess_real              :     6        1.29s   0.010%  ------ ||
|| ewald_calculate_forces_recipspace    :     6        1.56s   0.013%  ------ ||
|| ewald_calculate_forces               :     6        1.61s   0.013%  ------ ||
|| restart_kernel_write                 :    20        1.68s   0.014%  ------ ||
|| paw_nlcc_calculate_forces            :     6        2.53s   0.020%  ------ ||
|| pseudo_make_structure_factor         :     6        2.95s   0.024%  ------ ||
|| integrals_grad                       :     6        3.89s   0.031%  ------ ||
|| nonsc_forces_ngwfs_calc              :     6        3.89s   0.031%  ------ ||
|| sparse_init                          :     6        5.32s   0.043%  ------ ||
|| augmentation_screen_dij              :   511        5.98s   0.048%  ------ ||
|| restart_ngwfs_tightbox_input         :     6        5.98s   0.048%  ------ ||
|| paw_tcore_hartree_calc_forces        :     6        6.51s   0.053%  ------ ||
|| sw_init                              :     1        7.55s   0.061%  ------ ||
|| sparse_embed_hotelling_invert_embed  :    23        7.73s   0.062%  ------ ||
|| ngwf_gradient_coeffs                 :    14        8.94s   0.072%  ------ ||
|| fourier_apply_box_pair               :   952       10.62s   0.086%  2.369k ||
|| paw_species_calc_proj_prec_mat       :     6       13.13s   0.106%  ------ ||
|| basis_copy_function_to_box           : 18555       23.54s   0.190%  ------ ||
|| hartree_on_grid                      :   500       26.98s   0.218%  ------ ||
|| projectors_init_fftbox_recip         :    76       28.21s   0.228%  ------ ||
|| integrals_kinetic                    :    23       28.83s   0.233%  ------ ||
|| projectors_func_grad_ovlp_box        :    18       28.98s   0.234%  ------ ||
|| paw_dij_xc                           :   668       31.89s   0.257%  ------ ||
|| aug_nl_calculate_forces              :     6       34.67s   0.280%  ------ ||
|| projectors_func_ovlp_box             :    24       34.69s   0.280%  ------ ||
|| function_ops_brappd_ketppd           :    43       35.52s   0.287%  ------ ||
|| sparse_trace                         : 12254       57.08s   0.461%  ------ ||
|| augmentation_density_on_grid         :   501       69.56s   0.562%  ------ ||
|| aug_nonlocal_mat                     :   648       87.87s   0.709%  ------ ||
|| fourier_apply_cell_forward           :  4546       95.96s   0.775% 164.895 ||
|| eigenstates_pdos                     :     1       96.38s   0.778%  ------ ||
|| fourier_apply_cell_backward          :  4546      102.41s   0.827% 154.504 ||
|| basis_dot_function_with_box          : 4.134M     112.09s   0.905%  ------ ||
|| restart_ngwfs_tightbox_output        :    11      134.19s   1.083%  ------ ||
|| hamiltonian_energy_components        :     6      141.63s   1.143%  ------ ||
|| forces_calculate                     :     6      148.48s   1.199%  ------ ||
|| xc_energy_potential                  :   505      199.09s   1.607%  ------ ||
|| eigenstates_calculate                :     1      199.68s   1.612%  ------ ||
|| sparse_product                       : 11450      293.79s   2.372%  ------ ||
|| dense_eigensolve                     :   928      367.29s   2.965%  ------ ||
|| basis_add_function_to_box            : 12.21M     394.83s   3.188%  ------ ||
|| integrals_locpot_mat_els_batch       :   342      427.11s   3.448%  ------ ||
|| cell_grid_deposit_box_real           : 32208      527.74s   4.261%  ------ ||
|| cell_grid_extract_box_real           : 10100      569.54s   4.598%  ------ ||
|| projectors_gradient_batch            :    14      596.40s   4.815%  ------ ||
|| projectors_grad_precond_batch        :    14      825.55s   6.665%  ------ ||
|| density_batch_row_sums               :   501      972.97s   7.855%  ------ ||
|| density_fftbox_deposit_to_cell       : 16032      992.10s   8.010%  ------ ||
|| edft_diag_ngwf_ham                   :   926     1162.92s   9.389%  ------ ||
|| potential_apply_to_ngwf_batch        :   342     1225.15s   9.891%  ------ ||
|| fourier_apply_box                    : 60621     1258.40s  10.160%  4.114k ||
|| density_fftbox_interpolate_multiply  : 16032     1385.46s  11.185%  ------ ||
|| properties_calculate                 :     1     1418.06s  11.449%  ------ ||
|| ngwf_gradient_build_batch            :    14     1583.06s  12.781%  ------ ||
|| integrals_locpot_dbl_grid            :   342     1662.90s  13.425%  ------ ||
|| ngwf_gradient_batch                  :    14     1718.43s  13.874%  ------ ||
|| ngwf_gradient_lnv                    :    14     1736.55s  14.020%  ------ ||
|| edft_apply_smearing_operator         :   463     1902.72s  15.361%  ------ ||
|| density_batch_interp_deposit         :   501     2872.97s  23.195%  ------ ||
|| density_on_dbl_grid                  :   501     3929.52s  31.725%  ------ ||
|| hamiltonian_lhxc_calculate           :   487     4255.26s  34.354%  ------ ||
|| edft_calculate                       :    14     7818.07s  63.118%  ------ ||
|| ngwf_cg_optimise                     :     6    10691.50s  86.317%  ------ ||
|| total_time                           :     1    12386.36s 100.000%  ------ ||
================================================================================
Overhead of generating timer report: 
- 0 ms averaging over threads,
- 34 ms ensuring consistency across MPI ranks,
- 0 ms printing in order.

Job completed: 09-09-2020 16:28 (+0100)

