 +---------------------------------------------------------------+
 |                                                               |
 |        ####### #     # ####### ####### ####### ######         |
 |        #     # ##    # #          #    #       #     #        |
 |        #     # # #   # #          #    #       #     #        |
 |        #     # #  #  # #####      #    #####   ######         |
 |        #     # #   # # #          #    #       #              |
 |        #     # #    ## #          #    #       #              |
 |        ####### #     # #######    #    ####### #              |
 |                                                               |
 |        Linear-Scaling Ab Initio Total Energy Program          |
 |                                                               |
 |          Release for academic collaborators of ODG            |
 |                                             Version 5.3.2.12  |
 |                                                               |
 +---------------------------------------------------------------+
 |                                                               |
 |  Authors:                                                     |
 |  Jacek Dziedzic, Peter D. Haynes, Nicholas D. M. Hine,        |
 |  Arash. A. Mostofi, Mike C. Payne and Chris-Kriton Skylaris   |
 |                                                               |
 |  Contributors:                                                |
 |  J. Aarons, L. Andrinopoulos, P. W. Avraam, R. A. Bell,       |
 |  A. Bhandari, G. A. Bramley, R. J. Charlton, S. J. Clark,     |
 |  R. J. Clements, G. C. Constantinescu, F. Corsetti,           |
 |  N. Corsini, O. Dieguez, S. M. M. Dubois, K. K. B. Duff,      |
 |  J. M. Escartin, A. Greco, H. Helal, Q. O. Hill, L. P. Lee,   |
 |  J.-H. Li, E. B. Linscott, G. Moynihan, D. D. O`Regan,        |
 |  O. K. Okan, M. J. S. Phipps, C. J. Pickard,                  |
 |  J. C. A. Prentice, M. I. J. Probert, L. E. Ratcliff,         |
 |  M. Robinson, A. Ruiz Serrano, J. S. Spencer, E. W. Tait,     |
 |  G. Teobaldi, D. Turban, V. Vitale, K. A. Wilkinson,          |
 |  C. Weber, J. C. Womack, N. Yeung and T. J. Zuehlsdorff       |
 |                                                               |
 |                                   Copyright (c) 2004-2020     |
 |                                                               |
 |  Please cite:                                                 |
 |  "Introducing ONETEP: Linear-scaling density functional       |
 |   simulations on parallel computers".                         |
 |   C.-K. Skylaris, P. D. Haynes, A. A. Mostofi, M. C. Payne.   |
 |   J. Chem. Phys. 122 084119 (2005).                           |
 |                                                               |
 |          in all publications arising from your use of ONETEP. |
 |                                                               |
 +---------------------------------------------------------------+
 |                                                               |
 |   ONETEP is based on developments described in the following  |
 |   publications:                                               |
 |                                                               |
 |  "Nonorthogonal generalized Wannier function pseudopotential  |
 |   plane-wave method".                                         |
 |   C.-K. Skylaris, A. A. Mostofi, P. D. Haynes, O. Dieguez,    |
 |   M. C. Payne.                                                |
 |   Phys. Rev. B 66 035119 (2002).                              |
 |                                                               |
 |  "Preconditioned iterative minimization for linear-scaling    |
 |   electronic structure calculations".                         |
 |   A. A. Mostofi, P. D. Haynes, C.-K. Skylaris, M. C. Payne.   |
 |   J. Chem. Phys. 119(17), pp.8842-8848 (2003).                |
 |                                                               |
 |  "Total-energy calculations on a real space grid with         |
 |   localized functions and a plane-wave basis".                |
 |   A. A. Mostofi, C.-K. Skylaris, P. D. Haynes, M. C. Payne.   |
 |   Comput. Phys. Commun. 147, pp.788-802 (2002).               |
 |                                                               |
 |  "Accurate kinetic energy evaluation in electronic structure  |
 |   calculations with localized functions on real space grids"  |
 |   C.-K. Skylaris, A. A. Mostofi, P. D. Haynes, C. J. Pickard, |
 |   M. C. Payne.                                                |
 |   Comput. Phys. Commun. 140, pp.315-322 (2001).               |
 |                                                               |
 |  "Accurate ionic forces and geometry optimization in linear-  |
 |   scaling density-functional theory with local orbitals"      |
 |   N. D. M. Hine, M. Robinson, P. D. Haynes, C.-K. Skylaris,   |
 |   M. C. Payne, and A. A. Mostofi.                             |
 |   Phys. Rev. B 83 195102 (2011).                              |
 |                                                               |
 +---------------------------------------------------------------+

Job started: 21-02-2020 11:58 (-0000)
 
Reading parameters from file "3.1393504_GO_manual_4x64graphite.dat" ...

WARNING: "cutoff_energy" not specified, but "psinc_spacing" specified.
         Using the latter to set the KE cutoff energy to  732.32021eV,
         thus *overriding* the default.

... done

If your calculation crashes here, before "Checking processes and threads..."
is displayed, then your stack size is insufficient.
If so, use "ulimit -s unlimited" at runtime.
You can disable this check with "check_stack_size F".

Checking processes and threads...
   Determining the default number of threads...
      No default threads set at compilation time: defaulting to 1.
      OpenMP library call suggests 4 threads.
      Hybrid MPI-OpenMP compilation detected.
      Number of MPI processes > 1.
      OMP_NUM_THREADS environment variable present and
      its value matches the one obtained from the OpenMP library call.
      Using this value as default.
      Default threads: 4
      Default applies to threads_max and threads_num_fftboxes.
      Settings in the input file override this default.
   ... done

   Running with 40 MPI processes.
   There are 10 MPI processes running on the same node as the root process.
   Each MPI process is using: 
               1 threads for simulation cell FFTs.
               1 threads for parallel FFT box operations.
               4 threads for loops over batched FFT box operations.
               4 threads in other parallel regions.
... done

Basic input checks...
Resetting ngwf_cg_rotate to TRUE for EDFT calculations
... done

Reading geometry and species blocks from file "3.1393504_GO_manual_4x64graphite.dat" ...
    
  PSINC grid spacing along a1 set to   0.511215680000a0 from input file.
  PSINC grid spacing along a2 set to   0.531284090000a0 from input file.
  PSINC grid spacing along a3 set to   0.507053390000a0 from input file.
  Number of PPD points along a3 set to 1.  This is 
  the default value, it may have been provided also in the input file.
... done
 Writing xyz coordinates to file "3.1393504_GO_manual_4x64graphite.xyz" ... done


--------------------------------------------------------------------------------
---------------------------------- INPUT FILE ----------------------------------
--------------------------------------------------------------------------------

task : singlepoint                                                              
do_properties : true                                                            
dx_format T                                                                     
edft T                                                                          
output_detail VERBOSE                                                           
write_xyz T                                                                     
xc_functional VV10                                                              
PSINC_SPACING 0.51121568 0.53128409 0.50705339                                  
paw T                                                                           
pdos_max_l = 2                                                                  
dos_smear  0.1 eV                                                               
popn_calculate T                                                                
PDOS_PSEUDOATOMIC T                                                             
PDOS_REDUCE_SWS F                                                               
PDOS_CONSTRUCT_BASIS F                                                          
PDOS_LOWDIN T                                                                   
PDOS_ORTH_ATOM_BLOCKS F                                                         
PDOS_LCAO_OPTIMIZE F                                                            
pdos_optados_output T                                                           
homo_plot 0                                                                     
lumo_plot 0                                                                     
homo_dens_plot -1                                                               
lumo_dens_plot -1                                                               
%BLOCK SPECIES                                                                  
C C 6 4 9.0                                                                     
%ENDBLOCK SPECIES                                                               
%BLOCK SPECIES_POT                                                              
C "~/pp/paw/c_pbe_abinit.paw"                                                   
%ENDBLOCK SPECIES_POT                                                           
%BLOCK SPECIES_ATOMIC_SET                                                       
C "SOLVE conf=2s2 2p2"                                                          
%ENDBLOCK SPECIES_ATOMIC_SET                                                    
%BLOCK LATTICE_CART                                                             
32.21  0.00  0.00                                                               
0.00 18.59  0.00                                                                
0.00  0.00 59.33                                                                
%ENDBLOCK LATTICE_CART                                                          
%BLOCK POSITIONS_ABS                                                            
C  0.00  0.00  2.97                                                             
C  0.00  0.00 14.83                                                             
C  0.00  0.00 26.70                                                             
C  0.00  0.00 38.56                                                             
C  0.00  0.00 50.43                                                             
C  0.00  4.65  2.97                                                             
C  0.00  4.65 14.83                                                             
C  0.00  4.65 26.70                                                             
C  0.00  4.65 38.56                                                             
C  0.00  4.65 50.43                                                             
C  4.03  2.32  2.97                                                             
C  4.03  2.32 14.83                                                             
C  4.03  2.32 26.70                                                             
C  4.03  2.32 38.56                                                             
C  4.03  2.32 50.43                                                             
C  8.05  0.00  2.97                                                             
C  8.05  0.00 14.83                                                             
C  8.05  0.00 26.70                                                             
C  8.05  0.00 38.56                                                             
C  8.05  0.00 50.43                                                             
C  0.00  9.30  2.97                                                             
C  0.00  9.30 14.83                                                             
C  0.00  9.30 26.70                                                             
C  0.00  9.30 38.56                                                             
C  0.00  9.30 50.43                                                             
C  4.03  6.97  2.97                                                             
C  4.03  6.97 14.83                                                             
C  4.03  6.97 26.70                                                             
C  4.03  6.97 38.56                                                             
C  4.03  6.97 50.43                                                             
C  8.05  4.65  2.97                                                             
C  8.05  4.65 14.83                                                             
C  8.05  4.65 26.70                                                             
C  8.05  4.65 38.56                                                             
C  8.05  4.65 50.43                                                             
C 12.08  2.32  2.97                                                             
C 12.08  2.32 14.83                                                             
C 12.08  2.32 26.70                                                             
C 12.08  2.32 38.56                                                             
C 12.08  2.32 50.43                                                             
C 16.10  0.00  2.97                                                             
C 16.10  0.00 14.83                                                             
C 16.10  0.00 26.70                                                             
C 16.10  0.00 38.56                                                             
C 16.10  0.00 50.43                                                             
C  0.00 13.95  2.97                                                             
C  0.00 13.95 14.83                                                             
C  0.00 13.95 26.70                                                             
C  0.00 13.95 38.56                                                             
C  0.00 13.95 50.43                                                             
C  4.03 11.62  2.97                                                             
C  4.03 11.62 14.83                                                             
C  4.03 11.62 26.70                                                             
C  4.03 11.62 38.56                                                             
C  4.03 11.62 50.43                                                             
C  8.05  9.30  2.97                                                             
C  8.05  9.30 14.83                                                             
C  8.05  9.30 26.70                                                             
C  8.05  9.30 38.56                                                             
C  8.05  9.30 50.43                                                             
C 12.08  6.97  2.97                                                             
C 12.08  6.97 14.83                                                             
C 12.08  6.97 26.70                                                             
C 12.08  6.97 38.56                                                             
C 12.08  6.97 50.43                                                             
C 16.10  4.65  2.97                                                             
C 16.10  4.65 14.83                                                             
C 16.10  4.65 26.70                                                             
C 16.10  4.65 38.56                                                             
C 16.10  4.65 50.43                                                             
C 20.13  2.32  2.97                                                             
C 20.13  2.32 14.83                                                             
C 20.13  2.32 26.70                                                             
C 20.13  2.32 38.56                                                             
C 20.13  2.32 50.43                                                             
C 24.16  0.00  2.97                                                             
C 24.16  0.00 14.83                                                             
C 24.16  0.00 26.70                                                             
C 24.16  0.00 38.56                                                             
C 24.16  0.00 50.43                                                             
C  4.03 16.27  2.97                                                             
C  4.03 16.27 14.83                                                             
C  4.03 16.27 26.70                                                             
C  4.03 16.27 38.56                                                             
C  4.03 16.27 50.43                                                             
C  8.05 13.95  2.97                                                             
C  8.05 13.95 14.83                                                             
C  8.05 13.95 26.70                                                             
C  8.05 13.95 38.56                                                             
C  8.05 13.95 50.43                                                             
C 12.08 11.62  2.97                                                             
C 12.08 11.62 14.83                                                             
C 12.08 11.62 26.70                                                             
C 12.08 11.62 38.56                                                             
C 12.08 11.62 50.43                                                             
C 16.10  9.30  2.97                                                             
C 16.10  9.30 14.83                                                             
C 16.10  9.30 26.70                                                             
C 16.10  9.30 38.56                                                             
C 16.10  9.30 50.43                                                             
C 20.13  6.97  2.97                                                             
C 20.13  6.97 14.83                                                             
C 20.13  6.97 26.70                                                             
C 20.13  6.97 38.56                                                             
C 20.13  6.97 50.43                                                             
C 24.16  4.65  2.97                                                             
C 24.16  4.65 14.83                                                             
C 24.16  4.65 26.70                                                             
C 24.16  4.65 38.56                                                             
C 24.16  4.65 50.43                                                             
C 28.18  2.32  2.97                                                             
C 28.18  2.32 14.83                                                             
C 28.18  2.32 26.70                                                             
C 28.18  2.32 38.56                                                             
C 28.18  2.32 50.43                                                             
C 12.08 16.27  2.97                                                             
C 12.08 16.27 14.83                                                             
C 12.08 16.27 26.70                                                             
C 12.08 16.27 38.56                                                             
C 12.08 16.27 50.43                                                             
C 16.10 13.95  2.97                                                             
C 16.10 13.95 14.83                                                             
C 16.10 13.95 26.70                                                             
C 16.10 13.95 38.56                                                             
C 16.10 13.95 50.43                                                             
C 20.13 11.62  2.97                                                             
C 20.13 11.62 14.83                                                             
C 20.13 11.62 26.70                                                             
C 20.13 11.62 38.56                                                             
C 20.13 11.62 50.43                                                             
C 24.16  9.30  2.97                                                             
C 24.16  9.30 14.83                                                             
C 24.16  9.30 26.70                                                             
C 24.16  9.30 38.56                                                             
C 24.16  9.30 50.43                                                             
C 28.18  6.97  2.97                                                             
C 28.18  6.97 14.83                                                             
C 28.18  6.97 26.70                                                             
C 28.18  6.97 38.56                                                             
C 28.18  6.97 50.43                                                             
C 20.13 16.27  2.97                                                             
C 20.13 16.27 14.83                                                             
C 20.13 16.27 26.70                                                             
C 20.13 16.27 38.56                                                             
C 20.13 16.27 50.43                                                             
C 24.16 13.95  2.97                                                             
C 24.16 13.95 14.83                                                             
C 24.16 13.95 26.70                                                             
C 24.16 13.95 38.56                                                             
C 24.16 13.95 50.43                                                             
C 28.18 11.62  2.97                                                             
C 28.18 11.62 14.83                                                             
C 28.18 11.62 26.70                                                             
C 28.18 11.62 38.56                                                             
C 28.18 11.62 50.43                                                             
C 28.18 16.27  2.97                                                             
C 28.18 16.27 14.83                                                             
C 28.18 16.27 26.70                                                             
C 28.18 16.27 38.56                                                             
C 28.18 16.27 50.43                                                             
C  0.00  0.00  8.90                                                             
C  0.00  0.00 20.76                                                             
C  0.00  0.00 32.63                                                             
C  0.00  0.00 44.49                                                             
C  0.00  0.00 56.36                                                             
C  0.00  4.65  8.90                                                             
C  0.00  4.65 20.76                                                             
C  0.00  4.65 32.63                                                             
C  0.00  4.65 44.49                                                             
C  0.00  4.65 56.36                                                             
C  4.03  2.32  8.90                                                             
C  4.03  2.32 20.76                                                             
C  4.03  2.32 32.63                                                             
C  4.03  2.32 44.49                                                             
C  4.03  2.32 56.36                                                             
C  8.05  0.00  8.90                                                             
C  8.05  0.00 20.76                                                             
C  8.05  0.00 32.63                                                             
C  8.05  0.00 44.49                                                             
C  8.05  0.00 56.36                                                             
C  0.00  9.30  8.90                                                             
C  0.00  9.30 20.76                                                             
C  0.00  9.30 32.63                                                             
C  0.00  9.30 44.49                                                             
C  0.00  9.30 56.36                                                             
C  4.03  6.97  8.90                                                             
C  4.03  6.97 20.76                                                             
C  4.03  6.97 32.63                                                             
C  4.03  6.97 44.49                                                             
C  4.03  6.97 56.36                                                             
C  8.05  4.65  8.90                                                             
C  8.05  4.65 20.76                                                             
C  8.05  4.65 32.63                                                             
C  8.05  4.65 44.49                                                             
C  8.05  4.65 56.36                                                             
C 12.08  2.32  8.90                                                             
C 12.08  2.32 20.76                                                             
C 12.08  2.32 32.63                                                             
C 12.08  2.32 44.49                                                             
C 12.08  2.32 56.36                                                             
C 16.10  0.00  8.90                                                             
C 16.10  0.00 20.76                                                             
C 16.10  0.00 32.63                                                             
C 16.10  0.00 44.49                                                             
C 16.10  0.00 56.36                                                             
C  0.00 13.95  8.90                                                             
C  0.00 13.95 20.76                                                             
C  0.00 13.95 32.63                                                             
C  0.00 13.95 44.49                                                             
C  0.00 13.95 56.36                                                             
C  4.03 11.62  8.90                                                             
C  4.03 11.62 20.76                                                             
C  4.03 11.62 32.63                                                             
C  4.03 11.62 44.49                                                             
C  4.03 11.62 56.36                                                             
C  8.05  9.30  8.90                                                             
C  8.05  9.30 20.76                                                             
C  8.05  9.30 32.63                                                             
C  8.05  9.30 44.49                                                             
C  8.05  9.30 56.36                                                             
C 12.08  6.97  8.90                                                             
C 12.08  6.97 20.76                                                             
C 12.08  6.97 32.63                                                             
C 12.08  6.97 44.49                                                             
C 12.08  6.97 56.36                                                             
C 16.10  4.65  8.90                                                             
C 16.10  4.65 20.76                                                             
C 16.10  4.65 32.63                                                             
C 16.10  4.65 44.49                                                             
C 16.10  4.65 56.36                                                             
C 20.13  2.32  8.90                                                             
C 20.13  2.32 20.76                                                             
C 20.13  2.32 32.63                                                             
C 20.13  2.32 44.49                                                             
C 20.13  2.32 56.36                                                             
C 24.16  0.00  8.90                                                             
C 24.16  0.00 20.76                                                             
C 24.16  0.00 32.63                                                             
C 24.16  0.00 44.49                                                             
C 24.16  0.00 56.36                                                             
C  4.03 16.27  8.90                                                             
C  4.03 16.27 20.76                                                             
C  4.03 16.27 32.63                                                             
C  4.03 16.27 44.49                                                             
C  4.03 16.27 56.36                                                             
C  8.05 13.95  8.90                                                             
C  8.05 13.95 20.76                                                             
C  8.05 13.95 32.63                                                             
C  8.05 13.95 44.49                                                             
C  8.05 13.95 56.36                                                             
C 12.08 11.62  8.90                                                             
C 12.08 11.62 20.76                                                             
C 12.08 11.62 32.63                                                             
C 12.08 11.62 44.49                                                             
C 12.08 11.62 56.36                                                             
C 16.10  9.30  8.90                                                             
C 16.10  9.30 20.76                                                             
C 16.10  9.30 32.63                                                             
C 16.10  9.30 44.49                                                             
C 16.10  9.30 56.36                                                             
C 20.13  6.97  8.90                                                             
C 20.13  6.97 20.76                                                             
C 20.13  6.97 32.63                                                             
C 20.13  6.97 44.49                                                             
C 20.13  6.97 56.36                                                             
C 24.16  4.65  8.90                                                             
C 24.16  4.65 20.76                                                             
C 24.16  4.65 32.63                                                             
C 24.16  4.65 44.49                                                             
C 24.16  4.65 56.36                                                             
C 28.18  2.32  8.90                                                             
C 28.18  2.32 20.76                                                             
C 28.18  2.32 32.63                                                             
C 28.18  2.32 44.49                                                             
C 28.18  2.32 56.36                                                             
C 12.08 16.27  8.90                                                             
C 12.08 16.27 20.76                                                             
C 12.08 16.27 32.63                                                             
C 12.08 16.27 44.49                                                             
C 12.08 16.27 56.36                                                             
C 16.10 13.95  8.90                                                             
C 16.10 13.95 20.76                                                             
C 16.10 13.95 32.63                                                             
C 16.10 13.95 44.49                                                             
C 16.10 13.95 56.36                                                             
C 20.13 11.62  8.90                                                             
C 20.13 11.62 20.76                                                             
C 20.13 11.62 32.63                                                             
C 20.13 11.62 44.49                                                             
C 20.13 11.62 56.36                                                             
C 24.16  9.30  8.90                                                             
C 24.16  9.30 20.76                                                             
C 24.16  9.30 32.63                                                             
C 24.16  9.30 44.49                                                             
C 24.16  9.30 56.36                                                             
C 28.18  6.97  8.90                                                             
C 28.18  6.97 20.76                                                             
C 28.18  6.97 32.63                                                             
C 28.18  6.97 44.49                                                             
C 28.18  6.97 56.36                                                             
C 20.13 16.27  8.90                                                             
C 20.13 16.27 20.76                                                             
C 20.13 16.27 32.63                                                             
C 20.13 16.27 44.49                                                             
C 20.13 16.27 56.36                                                             
C 24.16 13.95  8.90                                                             
C 24.16 13.95 20.76                                                             
C 24.16 13.95 32.63                                                             
C 24.16 13.95 44.49                                                             
C 24.16 13.95 56.36                                                             
C 28.18 11.62  8.90                                                             
C 28.18 11.62 20.76                                                             
C 28.18 11.62 32.63                                                             
C 28.18 11.62 44.49                                                             
C 28.18 11.62 56.36                                                             
C 28.18 16.27  8.90                                                             
C 28.18 16.27 20.76                                                             
C 28.18 16.27 32.63                                                             
C 28.18 16.27 44.49                                                             
C 28.18 16.27 56.36                                                             
C  1.34  2.32  2.97                                                             
C  1.34  2.32 14.83                                                             
C  1.34  2.32 26.70                                                             
C  1.34  2.32 38.56                                                             
C  1.34  2.32 50.43                                                             
C  5.37  0.00  2.97                                                             
C  5.37  0.00 14.83                                                             
C  5.37  0.00 26.70                                                             
C  5.37  0.00 38.56                                                             
C  5.37  0.00 50.43                                                             
C  1.34  6.97  2.97                                                             
C  1.34  6.97 14.83                                                             
C  1.34  6.97 26.70                                                             
C  1.34  6.97 38.56                                                             
C  1.34  6.97 50.43                                                             
C  5.37  4.65  2.97                                                             
C  5.37  4.65 14.83                                                             
C  5.37  4.65 26.70                                                             
C  5.37  4.65 38.56                                                             
C  5.37  4.65 50.43                                                             
C  9.39  2.32  2.97                                                             
C  9.39  2.32 14.83                                                             
C  9.39  2.32 26.70                                                             
C  9.39  2.32 38.56                                                             
C  9.39  2.32 50.43                                                             
C 13.42  0.00  2.97                                                             
C 13.42  0.00 14.83                                                             
C 13.42  0.00 26.70                                                             
C 13.42  0.00 38.56                                                             
C 13.42  0.00 50.43                                                             
C  1.34 11.62  2.97                                                             
C  1.34 11.62 14.83                                                             
C  1.34 11.62 26.70                                                             
C  1.34 11.62 38.56                                                             
C  1.34 11.62 50.43                                                             
C  5.37  9.30  2.97                                                             
C  5.37  9.30 14.83                                                             
C  5.37  9.30 26.70                                                             
C  5.37  9.30 38.56                                                             
C  5.37  9.30 50.43                                                             
C  9.39  6.97  2.97                                                             
C  9.39  6.97 14.83                                                             
C  9.39  6.97 26.70                                                             
C  9.39  6.97 38.56                                                             
C  9.39  6.97 50.43                                                             
C 13.42  4.65  2.97                                                             
C 13.42  4.65 14.83                                                             
C 13.42  4.65 26.70                                                             
C 13.42  4.65 38.56                                                             
C 13.42  4.65 50.43                                                             
C 17.45  2.32  2.97                                                             
C 17.45  2.32 14.83                                                             
C 17.45  2.32 26.70                                                             
C 17.45  2.32 38.56                                                             
C 17.45  2.32 50.43                                                             
C 21.47  0.00  2.97                                                             
C 21.47  0.00 14.83                                                             
C 21.47  0.00 26.70                                                             
C 21.47  0.00 38.56                                                             
C 21.47  0.00 50.43                                                             
C  1.34 16.27  2.97                                                             
C  1.34 16.27 14.83                                                             
C  1.34 16.27 26.70                                                             
C  1.34 16.27 38.56                                                             
C  1.34 16.27 50.43                                                             
C  5.37 13.95  2.97                                                             
C  5.37 13.95 14.83                                                             
C  5.37 13.95 26.70                                                             
C  5.37 13.95 38.56                                                             
C  5.37 13.95 50.43                                                             
C  9.39 11.62  2.97                                                             
C  9.39 11.62 14.83                                                             
C  9.39 11.62 26.70                                                             
C  9.39 11.62 38.56                                                             
C  9.39 11.62 50.43                                                             
C 13.42  9.30  2.97                                                             
C 13.42  9.30 14.83                                                             
C 13.42  9.30 26.70                                                             
C 13.42  9.30 38.56                                                             
C 13.42  9.30 50.43                                                             
C 17.45  6.97  2.97                                                             
C 17.45  6.97 14.83                                                             
C 17.45  6.97 26.70                                                             
C 17.45  6.97 38.56                                                             
C 17.45  6.97 50.43                                                             
C 21.47  4.65  2.97                                                             
C 21.47  4.65 14.83                                                             
C 21.47  4.65 26.70                                                             
C 21.47  4.65 38.56                                                             
C 21.47  4.65 50.43                                                             
C 25.50  2.32  2.97                                                             
C 25.50  2.32 14.83                                                             
C 25.50  2.32 26.70                                                             
C 25.50  2.32 38.56                                                             
C 25.50  2.32 50.43                                                             
C 29.52  0.00  2.97                                                             
C 29.52  0.00 14.83                                                             
C 29.52  0.00 26.70                                                             
C 29.52  0.00 38.56                                                             
C 29.52  0.00 50.43                                                             
C  9.39 16.27  2.97                                                             
C  9.39 16.27 14.83                                                             
C  9.39 16.27 26.70                                                             
C  9.39 16.27 38.56                                                             
C  9.39 16.27 50.43                                                             
C 13.42 13.95  2.97                                                             
C 13.42 13.95 14.83                                                             
C 13.42 13.95 26.70                                                             
C 13.42 13.95 38.56                                                             
C 13.42 13.95 50.43                                                             
C 17.45 11.62  2.97                                                             
C 17.45 11.62 14.83                                                             
C 17.45 11.62 26.70                                                             
C 17.45 11.62 38.56                                                             
C 17.45 11.62 50.43                                                             
C 21.47  9.30  2.97                                                             
C 21.47  9.30 14.83                                                             
C 21.47  9.30 26.70                                                             
C 21.47  9.30 38.56                                                             
C 21.47  9.30 50.43                                                             
C 25.50  6.97  2.97                                                             
C 25.50  6.97 14.83                                                             
C 25.50  6.97 26.70                                                             
C 25.50  6.97 38.56                                                             
C 25.50  6.97 50.43                                                             
C 29.52  4.65  2.97                                                             
C 29.52  4.65 14.83                                                             
C 29.52  4.65 26.70                                                             
C 29.52  4.65 38.56                                                             
C 29.52  4.65 50.43                                                             
C 17.45 16.27  2.97                                                             
C 17.45 16.27 14.83                                                             
C 17.45 16.27 26.70                                                             
C 17.45 16.27 38.56                                                             
C 17.45 16.27 50.43                                                             
C 21.47 13.95  2.97                                                             
C 21.47 13.95 14.83                                                             
C 21.47 13.95 26.70                                                             
C 21.47 13.95 38.56                                                             
C 21.47 13.95 50.43                                                             
C 25.50 11.62  2.97                                                             
C 25.50 11.62 14.83                                                             
C 25.50 11.62 26.70                                                             
C 25.50 11.62 38.56                                                             
C 25.50 11.62 50.43                                                             
C 29.52  9.30  2.97                                                             
C 29.52  9.30 14.83                                                             
C 29.52  9.30 26.70                                                             
C 29.52  9.30 38.56                                                             
C 29.52  9.30 50.43                                                             
C 25.50 16.27  2.97                                                             
C 25.50 16.27 14.83                                                             
C 25.50 16.27 26.70                                                             
C 25.50 16.27 38.56                                                             
C 25.50 16.27 50.43                                                             
C 29.52 13.95  2.97                                                             
C 29.52 13.95 14.83                                                             
C 29.52 13.95 26.70                                                             
C 29.52 13.95 38.56                                                             
C 29.52 13.95 50.43                                                             
C  2.68  0.00  8.90                                                             
C  2.68  0.00 20.76                                                             
C  2.68  0.00 32.63                                                             
C  2.68  0.00 44.49                                                             
C  2.68  0.00 56.36                                                             
C  2.68  4.65  8.90                                                             
C  2.68  4.65 20.76                                                             
C  2.68  4.65 32.63                                                             
C  2.68  4.65 44.49                                                             
C  2.68  4.65 56.36                                                             
C  6.71  2.32  8.90                                                             
C  6.71  2.32 20.76                                                             
C  6.71  2.32 32.63                                                             
C  6.71  2.32 44.49                                                             
C  6.71  2.32 56.36                                                             
C 10.74  0.00  8.90                                                             
C 10.74  0.00 20.76                                                             
C 10.74  0.00 32.63                                                             
C 10.74  0.00 44.49                                                             
C 10.74  0.00 56.36                                                             
C  2.68  9.30  8.90                                                             
C  2.68  9.30 20.76                                                             
C  2.68  9.30 32.63                                                             
C  2.68  9.30 44.49                                                             
C  2.68  9.30 56.36                                                             
C  6.71  6.97  8.90                                                             
C  6.71  6.97 20.76                                                             
C  6.71  6.97 32.63                                                             
C  6.71  6.97 44.49                                                             
C  6.71  6.97 56.36                                                             
C 10.74  4.65  8.90                                                             
C 10.74  4.65 20.76                                                             
C 10.74  4.65 32.63                                                             
C 10.74  4.65 44.49                                                             
C 10.74  4.65 56.36                                                             
C 14.76  2.32  8.90                                                             
C 14.76  2.32 20.76                                                             
C 14.76  2.32 32.63                                                             
C 14.76  2.32 44.49                                                             
C 14.76  2.32 56.36                                                             
C 18.79  0.00  8.90                                                             
C 18.79  0.00 20.76                                                             
C 18.79  0.00 32.63                                                             
C 18.79  0.00 44.49                                                             
C 18.79  0.00 56.36                                                             
C  2.68 13.95  8.90                                                             
C  2.68 13.95 20.76                                                             
C  2.68 13.95 32.63                                                             
C  2.68 13.95 44.49                                                             
C  2.68 13.95 56.36                                                             
C  6.71 11.62  8.90                                                             
C  6.71 11.62 20.76                                                             
C  6.71 11.62 32.63                                                             
C  6.71 11.62 44.49                                                             
C  6.71 11.62 56.36                                                             
C 10.74  9.30  8.90                                                             
C 10.74  9.30 20.76                                                             
C 10.74  9.30 32.63                                                             
C 10.74  9.30 44.49                                                             
C 10.74  9.30 56.36                                                             
C 14.76  6.97  8.90                                                             
C 14.76  6.97 20.76                                                             
C 14.76  6.97 32.63                                                             
C 14.76  6.97 44.49                                                             
C 14.76  6.97 56.36                                                             
C 18.79  4.65  8.90                                                             
C 18.79  4.65 20.76                                                             
C 18.79  4.65 32.63                                                             
C 18.79  4.65 44.49                                                             
C 18.79  4.65 56.36                                                             
C 22.81  2.32  8.90                                                             
C 22.81  2.32 20.76                                                             
C 22.81  2.32 32.63                                                             
C 22.81  2.32 44.49                                                             
C 22.81  2.32 56.36                                                             
C 26.84  0.00  8.90                                                             
C 26.84  0.00 20.76                                                             
C 26.84  0.00 32.63                                                             
C 26.84  0.00 44.49                                                             
C 26.84  0.00 56.36                                                             
C  6.71 16.27  8.90                                                             
C  6.71 16.27 20.76                                                             
C  6.71 16.27 32.63                                                             
C  6.71 16.27 44.49                                                             
C  6.71 16.27 56.36                                                             
C 10.74 13.95  8.90                                                             
C 10.74 13.95 20.76                                                             
C 10.74 13.95 32.63                                                             
C 10.74 13.95 44.49                                                             
C 10.74 13.95 56.36                                                             
C 14.76 11.62  8.90                                                             
C 14.76 11.62 20.76                                                             
C 14.76 11.62 32.63                                                             
C 14.76 11.62 44.49                                                             
C 14.76 11.62 56.36                                                             
C 18.79  9.30  8.90                                                             
C 18.79  9.30 20.76                                                             
C 18.79  9.30 32.63                                                             
C 18.79  9.30 44.49                                                             
C 18.79  9.30 56.36                                                             
C 22.81  6.97  8.90                                                             
C 22.81  6.97 20.76                                                             
C 22.81  6.97 32.63                                                             
C 22.81  6.97 44.49                                                             
C 22.81  6.97 56.36                                                             
C 26.84  4.65  8.90                                                             
C 26.84  4.65 20.76                                                             
C 26.84  4.65 32.63                                                             
C 26.84  4.65 44.49                                                             
C 26.84  4.65 56.36                                                             
C 30.86  2.32  8.90                                                             
C 30.86  2.32 20.76                                                             
C 30.86  2.32 32.63                                                             
C 30.86  2.32 44.49                                                             
C 30.86  2.32 56.36                                                             
C 14.76 16.27  8.90                                                             
C 14.76 16.27 20.76                                                             
C 14.76 16.27 32.63                                                             
C 14.76 16.27 44.49                                                             
C 14.76 16.27 56.36                                                             
C 18.79 13.95  8.90                                                             
C 18.79 13.95 20.76                                                             
C 18.79 13.95 32.63                                                             
C 18.79 13.95 44.49                                                             
C 18.79 13.95 56.36                                                             
C 22.81 11.62  8.90                                                             
C 22.81 11.62 20.76                                                             
C 22.81 11.62 32.63                                                             
C 22.81 11.62 44.49                                                             
C 22.81 11.62 56.36                                                             
C 26.84  9.30  8.90                                                             
C 26.84  9.30 20.76                                                             
C 26.84  9.30 32.63                                                             
C 26.84  9.30 44.49                                                             
C 26.84  9.30 56.36                                                             
C 30.86  6.97  8.90                                                             
C 30.86  6.97 20.76                                                             
C 30.86  6.97 32.63                                                             
C 30.86  6.97 44.49                                                             
C 30.86  6.97 56.36                                                             
C 22.81 16.27  8.90                                                             
C 22.81 16.27 20.76                                                             
C 22.81 16.27 32.63                                                             
C 22.81 16.27 44.49                                                             
C 22.81 16.27 56.36                                                             
C 26.84 13.95  8.90                                                             
C 26.84 13.95 20.76                                                             
C 26.84 13.95 32.63                                                             
C 26.84 13.95 44.49                                                             
C 26.84 13.95 56.36                                                             
C 30.86 11.62  8.90                                                             
C 30.86 11.62 20.76                                                             
C 30.86 11.62 32.63                                                             
C 30.86 11.62 44.49                                                             
C 30.86 11.62 56.36                                                             
C 30.86 16.27  8.90                                                             
C 30.86 16.27 20.76                                                             
C 30.86 16.27 32.63                                                             
C 30.86 16.27 44.49                                                             
C 30.86 16.27 56.36                                                             
%ENDBLOCK POSITIONS_ABS                                                         

--------------------------------------------------------------------------------
-------------------------------- END INPUT FILE --------------------------------
--------------------------------------------------------------------------------


 
<<<<<<<<<<<<<<<<<<<<<<<<<<<<<<<<< Full system >>>>>>>>>>>>>>>>>>>>>>>>>>>>>>>>>>
<<<<<<<<<<<<<<<<<<<<<<<<<<< PAW Dataset information >>>>>>>>>>>>>>>>>>>>>>>>>>>
File: ~/pp/paw/c_pbe_abinit.paw; rc = 1.25 bohr; shape type =  3; rshape = 1.25 bohr;
  Atomic number:  6;  ionic charge:  4.000000
    Partial Wave 1: l = 0
    Partial Wave 2: l = 0
    Partial Wave 3: l = 1
    Partial Wave 4: l = 1
  Core charge supplied for Nonlinear Core Corrections
<<<<<<<<<<<<<<<<<<<<<<<<<<<<<<<<<<<<<<< >>>>>>>>>>>>>>>>>>>>>>>>>>>>>>>>>>>>>>>

-------------------------- Atom counting information ---------------------------
Symbol    Natoms    Nngwfs    Nprojs
  C        640      2560      5120
.......   ......    ......    ......
Totals:    640      2560      5120
--------------------------------------------------------------------------------

=============================== PSINC grid sizes ===============================
                      Simulation cell:   63 x  35 x 117
                              FFT-box:   63 x  35 x 117
                                  PPD:    7 x   5 x   1
Grid space d1=  0.511269841270a0 (KE cutoff=  29.06054Eh = 790.77748eV)
Grid space d2=  0.531142857143a0 (KE cutoff=  26.92659Eh = 732.70972eV)
Grid space d3=  0.507094017094a0 (KE cutoff=  29.54112Eh = 803.85491eV)
================================================================================
  
WARNING in cell_grid_distribute:
Average of less than one 23-slab per node, so workload cannot be
equally balanced between nodes.

********************* Fourier parallelisation information **********************
       Coarse grid (whole simulation cell) dimensions:     63    35   117
          Real-space ('12') slabs/node (min max mean):      2     3     2
         Recip-space ('23') slabs/node (min max mean):      0     1     0
********************************************************************************

********************* Fourier parallelisation information **********************
       Double grid (whole simulation cell) dimensions:    126    70   234
          Real-space ('12') slabs/node (min max mean):      5     6     5
         Recip-space ('23') slabs/node (min max mean):      1     2     1
********************************************************************************

Atom SCF Calculation for C  : Z (AE atom) =   6 : Z (PS atom) =   4
Config String: 2s2 2p2
Orbitals (num,occ):  2     2.00 2.00
Orbitals   (num,l):  2        0    1
Real-space Grid (nr,dr,rmax): 1293    0.0069659443    9.0000000000
Spherical Bessel Basis (nsws,lmax,cutoff):   37    2  161.4736382572
Confining potential (l,width,scale):  0    3.0000000000  100.0000000000
Confining potential (l,width,scale):  1    3.0000000000  100.0000000000
  1         -5.4283124456   -1.2935102156    4.5135257941   -1.5923561795
  2         -5.4241534249   -1.3636937911    4.4427183619   -1.5694122055
  3         -5.4326289545   -1.3865748334    4.4195613881   -1.5634604620
  4         -5.4368073263   -1.3933479911    4.4127833993   -1.5619680687
  5         -5.4388652800   -1.3969668505    4.4091714945   -1.5612108736
  6         -5.4399077146   -1.3988848872    4.4072644158   -1.5608235486
  7         -5.4404434041   -1.3998980658    4.4062615348   -1.5606243010
  8         -5.4407208401   -1.4004325328    4.4057350952   -1.5605214507
  9         -5.4408651553   -1.4007143559    4.4054589454   -1.5604682523
 10         -5.4409404127   -1.4008629743    4.4053141024   -1.5604407028
 11         -5.4409797152   -1.4009413770    4.4052381126   -1.5604264250
 12         -5.4410002582   -1.4009827603    4.4051982277   -1.5604190215
 13         -5.4410110012   -1.4010046176    4.4051772812   -1.5604151811
 14         -5.4410166211   -1.4010161701    4.4051662735   -1.5604131883
 15         -5.4410195614   -1.4010222805    4.4051604845   -1.5604121539
 16         -5.4410211001   -1.4010255150    4.4051574379   -1.5604116169
 17         -5.4410219052   -1.4010272285    4.4051558332   -1.5604113379
 18         -5.4410223266   -1.4010281369    4.4051549874   -1.5604111930
 19         -5.4410225472   -1.4010286190    4.4051545411   -1.5604111177
 20         -5.4410226626   -1.4010288749    4.4051543055   -1.5604110786
 21         -5.4410227231   -1.4010290110    4.4051541810   -1.5604110582
Atom SCF converged after  21 iterations to a total energy of     -5.44102272

Determining parallel strategy ...
... using space-filling curve
... NGWF load balancing: max     64;  min     64;  average     64
... Projector load balancing: max    128;  min    128;  average    128
... done
Calculating Ewald energy ...
              Ewald: real-space energy =    9541.114561
        Ewald: reciprocal-space energy =       0.037175
         Ewald: (sum_charge)**2 Energy =   11566.672950
         Ewald: (sum_charge**2) Energy =     914.425787
                          Ewald Energy =   -2939.947001
Basis initialisation ...... NGWF spheres initialised
... Projector spheres initialised
... NGWF tight boxes initialised
... Projector tight boxes initialised
... Tight-boxes gathered
... NGWF basis size (local,global):     693940  27896096
... PAW projector initialisation
... done

============================= Charge Augmentation ==============================
                           Aug box size:   11 x  11 x  11
================================================================================

========================== Sparse matrix information ===========================
                        Overlap matrix filling:  45.12%
                        Density kernel filling: 100.00%
              NGWF-Proj overlap matrix filling:  13.12%
                    Aug Overlap matrix filling:  48.25%
                    Hamiltonian matrix filling:  48.25%
                  NGWF diagonal matrix filling:   0.16%
                             KS matrix filling: 100.00% 
                           KSKS matrix filling: 100.00% 
================================================================================

Sparse matrix initialisation ... done
NGWF initialisation ...... done
============ Calculation of NGWF S^-1 using Hotelling algorithm ================ 
         Iteration  |  Frobenius norm and Maximum abs value    (of I-S*S_n^-1)   
               1       0.49261891E+02     0.97859234E+00
               2       0.48172393E+02     0.95894811E+00
               3       0.46497014E+02     0.92397647E+00
               4       0.44262480E+02     0.86654290E+00
               5       0.41539997E+02     0.78084264E+00
               6       0.38301405E+02     0.69299265E+00
               7       0.34790171E+02     0.64225107E+00
               8       0.31413687E+02     0.60037065E+00
               9       0.27976160E+02     0.55933936E+00
              10       0.23774287E+02     0.49902870E+00
              11       0.18270918E+02     0.40100149E+00
              12       0.11627209E+02     0.26342372E+00
              13       0.53076784E+01     0.11953670E+00
              14       0.13139922E+01     0.27638354E-01
              15       0.95755808E-01     0.17848536E-02
              16       0.62432172E-03     0.93634880E-05
              17       0.38688656E-07     0.37204817E-09
              18       0.86441654E-13     0.45519144E-14
================================================================================
Calculating core density ...
================================= Core Density =================================
               Core den box size:   21 x  21 x  21
================================================================================
 ... done
Up spin density kernel initialisation ...... done

Writing density kernel to file "3.1393504_GO_manual_4x64graphite.dkn" ... done

>>> Optimising kernel for current NGWFs:

--------------------------- Ensemble-DFT optimisation --------------------------
Running ScaLAPACK on   40 processor(s).

--------------------------------------------------------------------------------
  Iter                              Commutator    Free_energy(A=E-TS)     DeltaA
#    0                          0.000049958912   -3653.35248332388437  -3.65E+03

Step                       =       0.381966011250
Energy                     =   -3653.352439013242
Entropy (-TS)              =      -0.000044310391
Free energy (A=E-TS)       =   -3653.352483323884
Est. 0K Energy 0.5*(E+A)   =   -3653.352461168563
Residual Non-orthogonality =       0.000000000000
Residual N_electrons       =      -0.000000000251

Spin          Integrated_Ne            Fermi_level     Delta_Fermi_level
   1      2560.000000001015         0.247570726224              2.48E-01

                           Spin 1          
     Orb      H-eigenvalues     Occupancies
       1 |    -0.4763954136    1.0000000000 | 
                          ------
    1276 |     0.2151474760    0.9999642331 | 
    1277 |     0.2157442186    0.9999568168 | 
    1278 |     0.2157564572    0.9999566496 | 
    1279 |     0.2160789988    0.9999520019 | 
    1280 |     0.2166727188    0.9999421049 | 
                 - Gap at zero temperature -
    1281 |     0.2807073947    0.0000285526 | 
    1282 |     0.2807192310    0.0000284461 | 
    1283 |     0.2808520771    0.0000272775 | 
    1284 |     0.2809375108    0.0000265515 | 
    1285 |     0.2809493033    0.0000264528 | 
                          ------
    2560 |     1.0802972717    0.0000000000 | 

                       |  Abs_value |  Threshold | Converged
     Delta_Free_energy |   3.65E+03 |   1.00E-06 |        No
     Delta_Energy      |   3.65E+03 |   1.00E-04 |        No
     Delta_Entropy     |   4.43E-05 |   1.00E-04 |       Yes
     Commutator        |   5.00E-05 |   1.00E-05 |        No
     Delta_Fermi_level |   2.48E-01 |   1.00E-03 |        No

  Line search of the free energy minimum:
  Step_type        Step             Free_energy   Predicted_free_energy
.   Initial    0.000000    -3653.35248332388437
.    Trial1    0.381966    -3653.35499977449308
.    Trial2    0.618034    -3653.35431603123470
. Quadratic    0.405633    -3653.35500800244608    -3653.35500837003019

--------------------------------------------------------------------------------
  Iter                              Commutator    Free_energy(A=E-TS)     DeltaA
#    1                          0.000020900651   -3653.35500800244608  -2.52E-03

Step                       =       0.405632544259
Energy                     =   -3653.354964687478
Entropy (-TS)              =      -0.000043314931
Free energy (A=E-TS)       =   -3653.355008002446
Est. 0K Energy 0.5*(E+A)   =   -3653.354986344962
Residual Non-orthogonality =       0.000000000000
Residual N_electrons       =      -0.000000000037

Spin          Integrated_Ne            Fermi_level     Delta_Fermi_level
   1      2560.000000000146         0.249783845432              2.21E-03

                           Spin 1          
     Orb      H-eigenvalues     Occupancies
       1 |    -0.4747342153    1.0000000000 | 
                          ------
    1276 |     0.2173509450    0.9999643420 | 
    1277 |     0.2178313327    0.9999585013 | 
    1278 |     0.2178459034    0.9999583099 | 
    1279 |     0.2183039312    0.9999518225 | 
    1280 |     0.2187840224    0.9999439365 | 
                 - Gap at zero temperature -
    1281 |     0.2829872373    0.0000279574 | 
    1282 |     0.2830237787    0.0000276366 | 
    1283 |     0.2831675781    0.0000264098 | 
    1284 |     0.2832716867    0.0000255557 | 
    1285 |     0.2833035024    0.0000253003 | 
                          ------
    2560 |     1.0841584953    0.0000000000 | 

                       |  Abs_value |  Threshold | Converged
     Delta_Free_energy |   2.52E-03 |   1.00E-06 |        No
     Delta_Energy      |   2.53E-03 |   1.00E-04 |        No
     Delta_Entropy     |   9.95E-07 |   1.00E-04 |       Yes
     Commutator        |   2.09E-05 |   1.00E-05 |        No
     Delta_Fermi_level |   2.21E-03 |   1.00E-03 |        No

  Line search of the free energy minimum:
  Step_type        Step             Free_energy   Predicted_free_energy
.   Initial    0.000000    -3653.35500800244608
.    Trial1    0.405633    -3653.35535960898051
.    Trial2    0.632661    -3653.35498525664752
. Quadratic    0.311810    -3653.35539493499618    -3653.35539461249937

--------------------------------------------------------------------------------
  Iter                              Commutator    Free_energy(A=E-TS)     DeltaA
#    2                          0.000014714394   -3653.35539493499618  -3.87E-04

Step                       =       0.311809649041
Energy                     =   -3653.355352260683
Entropy (-TS)              =      -0.000042674032
Free energy (A=E-TS)       =   -3653.355394934996
Est. 0K Energy 0.5*(E+A)   =   -3653.355373597839
Residual Non-orthogonality =       0.000000000000
Residual N_electrons       =      -0.000000000282

Spin          Integrated_Ne            Fermi_level     Delta_Fermi_level
   1      2560.000000001123         0.250724905077              9.41E-04

                           Spin 1          
     Orb      H-eigenvalues     Occupancies
       1 |    -0.4739875749    1.0000000000 | 
                          ------
    1276 |     0.2182317160    0.9999650144 | 
    1277 |     0.2187321253    0.9999590256 | 
    1278 |     0.2187501606    0.9999587916 | 
    1279 |     0.2191747554    0.9999528792 | 
    1280 |     0.2196781473    0.9999447613 | 
                 - Gap at zero temperature -
    1281 |     0.2839820415    0.0000274869 | 
    1282 |     0.2840214755    0.0000271468 | 
    1283 |     0.2841631321    0.0000259592 | 
    1284 |     0.2842746660    0.0000250609 | 
    1285 |     0.2842972193    0.0000248831 | 
                          ------
    2560 |     1.0858973078    0.0000000000 | 

                       |  Abs_value |  Threshold | Converged
     Delta_Free_energy |   3.87E-04 |   1.00E-06 |        No
     Delta_Energy      |   3.88E-04 |   1.00E-04 |        No
     Delta_Entropy     |   6.41E-07 |   1.00E-04 |       Yes
     Commutator        |   1.47E-05 |   1.00E-05 |        No
     Delta_Fermi_level |   9.41E-04 |   1.00E-03 |       Yes

  Line search of the free energy minimum:
  Step_type        Step             Free_energy   Predicted_free_energy
.   Initial    0.000000    -3653.35539493499618
.    Trial1    0.311810    -3653.35555389724277
.    Trial2    0.574675    -3653.35528047191247
. Quadratic    0.250413    -3653.35556413762788    -3653.35556406410888

--------------------------------------------------------------------------------
  Iter                              Commutator    Free_energy(A=E-TS)     DeltaA
#    3                          0.000010242256   -3653.35556413762788  -1.69E-04

Step                       =       0.250413389125
Energy                     =   -3653.355521801444
Entropy (-TS)              =      -0.000042336316
Free energy (A=E-TS)       =   -3653.355564137628
Est. 0K Energy 0.5*(E+A)   =   -3653.355542969536
Residual Non-orthogonality =       0.000000000000
Residual N_electrons       =       0.000000000132

Spin          Integrated_Ne            Fermi_level     Delta_Fermi_level
   1      2559.999999999475         0.251247043036              5.22E-04

                           Spin 1          
     Orb      H-eigenvalues     Occupancies
       1 |    -0.4735718391    1.0000000000 | 
                          ------
    1276 |     0.2187263747    0.9999653166 | 
    1277 |     0.2192290356    0.9999593507 | 
    1278 |     0.2192476815    0.9999591106 | 
    1279 |     0.2196665544    0.9999533285 | 
    1280 |     0.2201727872    0.9999452388 | 
                 - Gap at zero temperature -
    1281 |     0.2845317073    0.0000272490 | 
    1282 |     0.2845714454    0.0000269092 | 
    1283 |     0.2847138177    0.0000257263 | 
    1284 |     0.2848234406    0.0000248510 | 
    1285 |     0.2848454272    0.0000246791 | 
                          ------
    2560 |     1.0868654734    0.0000000000 | 

                       |  Abs_value |  Threshold | Converged
     Delta_Free_energy |   1.69E-04 |   1.00E-06 |        No
     Delta_Energy      |   1.70E-04 |   1.00E-04 |        No
     Delta_Entropy     |   3.38E-07 |   1.00E-04 |       Yes
     Commutator        |   1.02E-05 |   1.00E-05 |        No
     Delta_Fermi_level |   5.22E-04 |   1.00E-03 |       Yes

  Line search of the free energy minimum:
  Step_type        Step             Free_energy   Predicted_free_energy
.   Initial    0.000000    -3653.35556413762788
.    Trial1    0.250413    -3653.35564601522537
.    Trial2    0.536730    -3653.35557723521288
. Quadratic    0.279911    -3653.35564692656817    -3653.35564693471679

--------------------------------------------------------------------------------
  Iter                              Commutator    Free_energy(A=E-TS)     DeltaA
#    4                          0.000007717375   -3653.35564692656817  -8.28E-05

Step                       =       0.279910959861
Energy                     =   -3653.355604868160
Entropy (-TS)              =      -0.000042058915
Free energy (A=E-TS)       =   -3653.355646926568
[...]
 C   160 -- C   385       -0.09      5.37000
 C   159 -- C   384       -0.09      5.37000
 C   158 -- C   383       -0.09      5.37000
 C   157 -- C   382       -0.09      5.37000
 C   156 -- C   381       -0.09      5.37000
 C   155 -- C   355       -0.09      5.37000
 C   154 -- C   354       -0.09      5.37000
 C   153 -- C   353       -0.09      5.37000
 C   152 -- C   352       -0.09      5.37000
 C   151 -- C   351       -0.09      5.37000
 C   140 -- C   335       -0.09      5.37000
 C   139 -- C   334       -0.09      5.37000
 C   138 -- C   333       -0.09      5.37000
 C   137 -- C   332       -0.09      5.37000
 C   136 -- C   331       -0.09      5.37000
 C   115 -- C   325       -0.09      5.37000
 C   114 -- C   324       -0.09      5.37000
 C   113 -- C   323       -0.09      5.37000
 C   112 -- C   322       -0.09      5.37000
 C   111 -- C   321       -0.09      5.37000
 C   219 -- C   569       -0.09      5.37202
 C   218 -- C   568       -0.09      5.37202
 C   217 -- C   567       -0.09      5.37202
 C   216 -- C   566       -0.09      5.37202
 C   285 -- C   580       -0.09      5.37202
 C   284 -- C   579       -0.09      5.37202
 C   283 -- C   578       -0.09      5.37202
 C   282 -- C   577       -0.09      5.37202
 C   281 -- C   576       -0.09      5.37202
 C   260 -- C   605       -0.09      5.37202
 C   259 -- C   604       -0.09      5.37202
 C   258 -- C   603       -0.09      5.37202
 C   257 -- C   602       -0.09      5.37202
 C   256 -- C   601       -0.09      5.37202
 C   250 -- C   540       -0.09      5.37202
 C   249 -- C   539       -0.09      5.37202
 C   248 -- C   538       -0.09      5.37202
 C   247 -- C   537       -0.09      5.37202
 C   246 -- C   536       -0.09      5.37202
 C   220 -- C   570       -0.09      5.37202
 C   220 -- C   515       -0.09      5.37202
 C   219 -- C   514       -0.09      5.37202
 C   218 -- C   513       -0.09      5.37202
 C   217 -- C   512       -0.09      5.37202
 C   216 -- C   511       -0.09      5.37202
 C    95 -- C   425       -0.09      5.37202
 C    94 -- C   424       -0.09      5.37202
 C    93 -- C   423       -0.09      5.37202
 C   195 -- C   540       -0.09      5.37202
 C   195 -- C   500       -0.09      5.37202
 C   194 -- C   539       -0.09      5.37202
 C    92 -- C   422       -0.09      5.37202
 C   194 -- C   499       -0.09      5.37202
 C   193 -- C   538       -0.09      5.37202
 C   193 -- C   498       -0.09      5.37202
 C   192 -- C   537       -0.09      5.37202
 C    91 -- C   421       -0.09      5.37202
 C   192 -- C   497       -0.09      5.37202
 C   191 -- C   536       -0.09      5.37202
 C   191 -- C   496       -0.09      5.37202
 C    85 -- C   355       -0.09      5.37202
 C   180 -- C   515       -0.09      5.37202
 C    84 -- C   354       -0.09      5.37202
 C   179 -- C   514       -0.09      5.37202
 C    83 -- C   353       -0.09      5.37202
 C   178 -- C   513       -0.09      5.37202
 C   177 -- C   512       -0.09      5.37202
 C    82 -- C   352       -0.09      5.37202
 C   176 -- C   511       -0.09      5.37202
 C    81 -- C   351       -0.09      5.37202
 C   120 -- C   395       -0.09      5.37202
 C    55 -- C   385       -0.09      5.37202
 C   119 -- C   394       -0.09      5.37202
 C   118 -- C   393       -0.09      5.37202
 C   117 -- C   392       -0.09      5.37202
 C    54 -- C   384       -0.09      5.37202
 C   116 -- C   391       -0.09      5.37202
 C    53 -- C   383       -0.09      5.37202
 C    52 -- C   382       -0.09      5.37202
 C    51 -- C   381       -0.09      5.37202
 C   205 -- C   550       -0.09      5.37202
 C   204 -- C   549       -0.09      5.37202
 C   203 -- C   548       -0.09      5.37202
 C   202 -- C   547       -0.09      5.37202
 C   201 -- C   546       -0.09      5.37202
 C    95 -- C   365       -0.09      5.37202
 C    94 -- C   364       -0.09      5.37202
 C    93 -- C   363       -0.09      5.37202
 C    92 -- C   362       -0.09      5.37202
 C    91 -- C   361       -0.09      5.37202
 C    65 -- C   395       -0.09      5.37202
 C    64 -- C   394       -0.09      5.37202
 C    63 -- C   393       -0.09      5.37202
 C    30 -- C   355       -0.09      5.37202
 C    62 -- C   392       -0.09      5.37202
 C    61 -- C   391       -0.09      5.37202
 C    29 -- C   354       -0.09      5.37202
 C   260 -- C   550       -0.09      5.37202
 C   259 -- C   549       -0.09      5.37202
 C    28 -- C   353       -0.09      5.37202
 C   258 -- C   548       -0.09      5.37202
 C   257 -- C   547       -0.09      5.37202
 C   256 -- C   546       -0.09      5.37202
 C    27 -- C   352       -0.09      5.37202
 C    26 -- C   351       -0.09      5.37202
 C    55 -- C   335       -0.09      5.37202
 C    54 -- C   334       -0.09      5.37202
 C    53 -- C   333       -0.09      5.37202
 C   230 -- C   580       -0.09      5.37202
 C   230 -- C   525       -0.09      5.37202
 C   229 -- C   579       -0.09      5.37202
 C   229 -- C   524       -0.09      5.37202
 C   228 -- C   578       -0.09      5.37202
 C    52 -- C   332       -0.09      5.37202
 C   228 -- C   523       -0.09      5.37202
 C   227 -- C   577       -0.09      5.37202
 C   227 -- C   522       -0.09      5.37202
 C   226 -- C   576       -0.09      5.37202
 C   226 -- C   521       -0.09      5.37202
 C    51 -- C   331       -0.09      5.37202
 C    23 -- C   478       -0.09      5.37202
 C    49 -- C   469       -0.09      5.37202
 C    11 -- C   331       -0.09      5.37202
 C    48 -- C   468       -0.09      5.37202
 C    47 -- C   467       -0.09      5.37202
 C    22 -- C   477       -0.09      5.37202
 C    46 -- C   466       -0.09      5.37202
 C    21 -- C   476       -0.09      5.37202
 C    40 -- C   365       -0.09      5.37202
 C    39 -- C   364       -0.09      5.37202
 C    38 -- C   363       -0.09      5.37202
 C    37 -- C   362       -0.09      5.37202
 C    36 -- C   361       -0.09      5.37202
 C    15 -- C   335       -0.09      5.37202
 C    65 -- C   345       -0.09      5.37202
 C    64 -- C   344       -0.09      5.37202
 C    63 -- C   343       -0.09      5.37202
 C    30 -- C   325       -0.09      5.37202
 C    14 -- C   334       -0.09      5.37202
 C    62 -- C   342       -0.09      5.37202
 C    61 -- C   341       -0.09      5.37202
 C    29 -- C   324       -0.09      5.37202
 C    28 -- C   323       -0.09      5.37202
 C    13 -- C   333       -0.09      5.37202
 C    27 -- C   322       -0.09      5.37202
 C    26 -- C   321       -0.09      5.37202
 C    25 -- C   480       -0.09      5.37202
 C    12 -- C   332       -0.09      5.37202
 C    24 -- C   479       -0.09      5.37202
 C    50 -- C   470       -0.09      5.37202
 C    24 -- C   449       -0.09      5.37202
 C     6 -- C   416       -0.09      5.37202
 C    23 -- C   448       -0.09      5.37202
 C    22 -- C   447       -0.09      5.37202
 C    10 -- C   470       -0.09      5.37202
 C     5 -- C   450       -0.09      5.37202
 C    21 -- C   446       -0.09      5.37202
 C    10 -- C   420       -0.09      5.37202
 C     9 -- C   469       -0.09      5.37202
 C     9 -- C   419       -0.09      5.37202
 C     8 -- C   468       -0.09      5.37202
 C     4 -- C   449       -0.09      5.37202
 C   150 -- C   440       -0.09      5.37202
 C   149 -- C   439       -0.09      5.37202
 C   148 -- C   438       -0.09      5.37202
 C   147 -- C   437       -0.09      5.37202
 C     8 -- C   418       -0.09      5.37202
 C   146 -- C   436       -0.09      5.37202
 C     2 -- C   447       -0.09      5.37202
 C   135 -- C   460       -0.09      5.37202
 C     7 -- C   467       -0.09      5.37202
 C   134 -- C   459       -0.09      5.37202
 C   133 -- C   458       -0.09      5.37202
 C   132 -- C   457       -0.09      5.37202
 C   131 -- C   456       -0.09      5.37202
 C     7 -- C   417       -0.09      5.37202
 C     1 -- C   446       -0.09      5.37202
 C     6 -- C   466       -0.09      5.37202
 C    25 -- C   450       -0.09      5.37202
 C     3 -- C   448       -0.09      5.37202
 C   106 -- C   436       -0.09      5.37202
 C   106 -- C   376       -0.09      5.37202
 C    80 -- C   410       -0.09      5.37202
 C    79 -- C   409       -0.09      5.37202
 C    78 -- C   408       -0.09      5.37202
 C    77 -- C   407       -0.09      5.37202
 C    76 -- C   406       -0.09      5.37202
 C   135 -- C   410       -0.09      5.37202
 C   134 -- C   409       -0.09      5.37202
 C   133 -- C   408       -0.09      5.37202
 C   132 -- C   407       -0.09      5.37202
 C   131 -- C   406       -0.09      5.37202
 C   110 -- C   440       -0.09      5.37202
 C   110 -- C   380       -0.09      5.37202
 C   109 -- C   439       -0.09      5.37202
 C   109 -- C   379       -0.09      5.37202
 C   108 -- C   438       -0.09      5.37202
 C   108 -- C   378       -0.09      5.37202
 C   107 -- C   437       -0.09      5.37202
 C   107 -- C   377       -0.09      5.37202
 C   215 -- C   635       -0.10      5.38000
 C   214 -- C   634       -0.10      5.38000
 C   213 -- C   633       -0.10      5.38000
 C   212 -- C   632       -0.10      5.38000
 C   211 -- C   631       -0.10      5.38000
 C   190 -- C   620       -0.10      5.38000
 C   189 -- C   619       -0.10      5.38000
 C   188 -- C   618       -0.10      5.38000
 C   187 -- C   617       -0.10      5.38000
 C   186 -- C   616       -0.10      5.38000
 C   175 -- C   595       -0.10      5.38000
 C   174 -- C   594       -0.10      5.38000
 C   173 -- C   593       -0.10      5.38000
 C   172 -- C   592       -0.10      5.38000
 C   171 -- C   591       -0.10      5.38000
 C   245 -- C   640       -0.09      5.38000
 C   244 -- C   639       -0.09      5.38000
 C   243 -- C   638       -0.09      5.38000
 C   242 -- C   637       -0.09      5.38000
 C   241 -- C   636       -0.09      5.38000
==================================================


=================== Orbital energy and occupancy information ===================

      Total number of orbitals:    2560
        Occupancy sum (kernel):    1280.000000001
   Occupancy sum (eigenvalues):    1280.000000001
                 HOMO-LUMO gap:       0.000063152 Eh
                 Mid-gap level:       0.320690095 Eh

                        Orbital | Energy (Eh) | Occupancy
                            1    -0.437455621   1.0000000
                        .......   ...........   .........
                         1272     0.253799187   0.9999855
                         1273     0.254227577   0.9999834
                         1274     0.254268459   0.9999832
                         1275     0.257995725   0.9999455
                         1276     0.258000713   0.9999454
                         1277     0.258213106   0.9999415
                         1278     0.258428217   0.9999375
                         1279     0.258433410   0.9999374
                         1280     0.258624493   0.9999334
                         1281     0.320658520   0.0000466
                        ....... -- gap at 0K -- .........
                         1282     0.320721671   0.0000457
                         1283     0.320912554   0.0000430
                         1284     0.320975820   0.0000421
                         1285     0.322065696   0.0000300
                         1286     0.322079800   0.0000299
                         1287     0.322339461   0.0000275
                         1288     0.322353663   0.0000274
                         1289     0.322920707   0.0000229
                         1290     0.323186127   0.0000209
                         1291     0.323202341   0.0000210
                        .......   ...........   .........
                         2560     1.179245211   0.0000000

================================================================================

===================== Writing canonical molecular orbitals =====================
| Orbital  Energy (eV)  Norm     |
| HOMO      8.72556231  1.000000 | Writing "3.1393504_GO_manual_4x64graphite_HOMO.cube" ... done
Writing "3.1393504_GO_manual_4x64graphite_HOMO.dx" ... done
| LUMO      8.72728075  1.000000 | Writing "3.1393504_GO_manual_4x64graphite_LUMO.cube" ... done
Writing "3.1393504_GO_manual_4x64graphite_LUMO.dx" ... done
================================================================================
 
===================== Density of States (DOS) calculation ======================
Writing "3.1393504_GO_manual_4x64graphite_DOS.txt" ...  done
================================================================================
 
Writing bands to file "3.1393504_GO_manual_4x64graphite.val_bands" ... done
 
================ Projected Density of States (pDOS) calculation ================
 
Constructing AM resolved functions  ...... done
Writing NGWF plot files in formats: CUBE DX ...  done
 
Performing overlap integrals ...  done
 
Computing pDOS weights ...  done
 
All bands spilling parameter =   3.89 %
Occupancy-weighted spilling parameter =   0.82 %
 
 => Outputting data for OptaDOS <=
 
Writing pDOS weights to file "3.1393504_GO_manual_4x64graphite.val_pdos_bin" ... done
 
Writing band gradients to file "3.1393504_GO_manual_4x64graphite.val_dome_bin" ... done
 
Writing Castep output cell file to "3.1393504_GO_manual_4x64graphite-out.cell" ... done
 
 => Computing Gaussian smeared pDOS <= 
Writing "3.1393504_GO_manual_4x64graphite_PDOS.txt" ...  done
 
 => Computing Occupancy-weighted Gaussian smeared pDOS <= 
Writing "3.1393504_GO_manual_4x64graphite_occ_PDOS.txt" ...  done
  => Band centres: 
 S band centre of group 1:  -15.516581 eV
 P band centre of group 1:   -8.414880 eV
  Band centres done. <=
  => Integrated number of electrons in each AM band: 
 S num electrons of group 1:  574.571827
 P num electrons of group 1: 1964.546788
  Integrated number of electrons done. <=
================================================================================

------------------------------ TIMING INFORMATION ------------------------------
AVERAGE TIME:    4735.838s on     40 node(s)                                    
TOTAL TIME:      4735.841s on     40 node(s)                                    
================= AVERAGE TIMINGS FROM ALL NODES (CUMULATIVE) ==================
|| TAG                                    #calls    cpu time   %total  Gflops ||
|| work_imbalance                       :     1        0.00s   0.000%  ------ ||
|| paw_tcore_hartree_on_grid            :     1        0.01s   0.000%  ------ ||
|| paw_tcore_density                    :     1        0.01s   0.000%  ------ ||
|| paw_sphere_density_on_grid           :     1        0.02s   0.000%  ------ ||
|| sparse_set_to_garbage                :   183        0.03s   0.001%  ------ ||
|| pseudo_make_structure_factor         :     1        0.05s   0.001%  ------ ||
|| paw_dij_hartree                      :   426        0.05s   0.001%  ------ ||
|| basis_extract_function_from_box      :  2048        0.09s   0.002%  ------ ||
|| paw_species_calc_proj_prec_mat       :     1        0.12s   0.003%  ------ ||
|| paw_dataset_init                     :     1        0.23s   0.005%  ------ ||
|| density_init_guess_real              :     1        0.59s   0.012%  ------ ||
|| restart_kernel_write                 :    17        0.81s   0.017%  ------ ||
|| sparse_init                          :     1        0.99s   0.021%  ------ ||
|| dense_normal_eigensolve              :     1        1.19s   0.025%  ------ ||
|| hartree_on_grid                      :   319        1.44s   0.030%  ------ ||
|| ngwfs_initialise_from_radial         :     2        1.83s   0.039%  ------ ||
|| ewald_calculate_energy               :     1        2.32s   0.049%  ------ ||
|| projectors_init_fftbox_recip         :   161        3.13s   0.066%  ------ ||
|| fourier_apply_box_pair               :  3040        5.01s   0.106% 562.540 ||
|| basis_copy_function_to_box           : 30016        6.41s   0.135%  ------ ||
|| sw_init                              :     1        6.74s   0.142%  ------ ||
|| augmentation_screen_dij              :   326        7.16s   0.151%  ------ ||
|| sparse_embed_hotelling_invert_embed  :    31        9.74s   0.206%  ------ ||
|| ngwf_gradient_coeffs                 :    16       13.22s   0.279%  ------ ||
|| fourier_apply_cell_backward          :  9860       17.17s   0.363%  62.815 ||
|| cell_grid_extract_box_real           : 12780       17.74s   0.375%  ------ ||
|| fourier_apply_cell_forward           :  9223       18.63s   0.393%  54.151 ||
|| sparse_trace                         :  3880       23.08s   0.487%  ------ ||
|| cell_grid_deposit_box_real           : 41008       28.12s   0.594%  ------ ||
|| paw_dij_xc                           :   426       41.23s   0.871%  ------ ||
|| aug_nonlocal_mat                     :   410       56.20s   1.187%  ------ ||
|| density_fftbox_deposit_to_cell       : 20416       56.91s   1.202%  ------ ||
|| eigenstates_pdos                     :     1       56.98s   1.203%  ------ ||
|| augmentation_density_on_grid         :   319       58.70s   1.239%  ------ ||
|| eigenstates_calculate                :     1       61.53s   1.299%  ------ ||
|| function_ops_brappd_ketppd           :    64       66.71s   1.409%  ------ ||
|| hamiltonian_energy_components        :     4       69.38s   1.465%  ------ ||
|| projectors_func_ovlp_box             :    32       78.26s   1.653%  ------ ||
|| nlxc_vdw_energy                      :   636       84.14s   1.777%  ------ ||
|| xc_energy_potential                  :   318       87.02s   1.838%  ------ ||
|| properties_calculate                 :     1      108.19s   2.284%  ------ ||
|| integrals_kinetic                    :    31      118.42s   2.501%  ------ ||
|| restart_ngwfs_tightbox_output        :    15      118.95s   2.512%  ------ ||
|| dense_eigensolve                     :   283      139.02s   2.936%  ------ ||
|| potential_apply_to_ngwf_batch        :   408      161.22s   3.404%  ------ ||
|| sparse_product                       :  3832      167.51s   3.537%  ------ ||
|| basis_dot_function_with_box          : 10.06M     270.72s   5.716%  ------ ||
|| fourier_apply_box                    : 93840      292.74s   6.181% 981.969 ||
|| projectors_gradient_batch            :    64      299.58s   6.326%  ------ ||
|| edft_diag_ngwf_ham                   :   282      312.72s   6.603%  ------ ||
|| integrals_locpot_mat_els_batch       :   408      393.20s   8.303%  ------ ||
|| density_fftbox_interpolate_multiply  : 20416      395.36s   8.348%  ------ ||
|| projectors_grad_precond_batch        :    64      442.44s   9.342%  ------ ||
|| density_batch_interp_deposit         :  1276      503.60s  10.634%  ------ ||
|| integrals_locpot_dbl_grid            :   102      556.68s  11.755%  ------ ||
|| edft_apply_smearing_operator         :   282      614.34s  12.972%  ------ ||
|| basis_add_function_to_box            : 28.32M     725.29s  15.315%  ------ ||
|| ngwf_gradient_build_batch            :    64      790.54s  16.693%  ------ ||
|| ngwf_gradient_batch                  :    64     1065.48s  22.498%  ------ ||
|| ngwf_gradient_lnv                    :    16     1104.21s  23.316%  ------ ||
|| density_batch_row_sums               :  1276     1106.67s  23.368%  ------ ||
|| density_on_dbl_grid                  :   319     1627.78s  34.371%  ------ ||
|| hamiltonian_lhxc_calculate           :   313     1751.23s  36.978%  ------ ||
|| edft_calculate                       :    16     2922.36s  61.707%  ------ ||
|| ngwf_cg_optimise                     :     1     4605.38s  97.245%  ------ ||
|| total_time                           :     1     4735.84s 100.000%  ------ ||
================================================================================
Overhead of generating timer report: 
- 0 ms averaging over threads,
- 6 ms ensuring consistency across MPI ranks,
- 0 ms printing in order.

Job completed: 21-02-2020 13:17 (-0000)

